
 Primary working directories    : /mnt/storage/home/lb17101/scratch/1377544/molpro.0CkDEluVnJ
 Secondary working directories  : /mnt/storage/home/lb17101/scratch/1377544/molpro.0CkDEluVnJ
 Wavefunction directory         : /mnt/storage/home/lb17101/optimizations/10/
 Main file repository           : /mnt/storage/home/lb17101/optimizations/10/

 id        : simonbennie

 Nodes                   nprocs
 compute075.bc4.acrc.priv    1

 Using customized tuning parameters: mindgm=1; mindgv=20; mindgc=4; mindgr=1; noblas=0; minvec=7
 default implementation of scratch files=df  


 Variables initialized (924), CPU time= 0.00 sec
 memory,536,m
 
 geomtyp=xyz
 
 nosym
 noorient
 gdirect
 angstrom
 
 geometry=input.xyz
 Including file /mnt/storage/home/lb17101/optimizations/10/input.xyz
 
 set,charge=0
 
 basis=svp
 df-hf
 {cf-uks,pbe;}
 {optg,method=slrf,maxiter=50;
 constraint,1.100,angstrom,bond,atoms=[H10,C5]
 constraint,1.200,angstrom,bond,atoms=[H10,C17]
 constraint,180,deg,angle,atoms=[C5,H10,C17]
 {slopt;}}
 {cf-uks,pbe0;}
 {optg,method=slrf,maxiter=50;
 constraint,1.100,angstrom,bond,atoms=[H10,C5]
 constraint,1.200,angstrom,bond,atoms=[H10,C17]
 constraint,180,deg,angle,atoms=[C5,H10,C17]
 {slopt;}}
 {cf-uks,pbe;}
 basis=tzvp
 {cf-uks,pbe;}
 {cf-uks,pbe0;}
 {uks,pbe0;}
 {uks,b3lyp;}
 Commands  initialized (760), CPU time= 0.01 sec, 616 directives.
 Default parameters read. Elapsed time= 0.03 sec

 Checking input...
 Passed
1


                                         ***  PROGRAM SYSTEM MOLPRO  ***
                                       Copyright, TTI GmbH Stuttgart, 2015
                                    Version 2018.1 linked Oct 16 2018 14:32:03


 **********************************************************************************************************************************
 LABEL *                                                                                 
  64 bit serial version                                                                  DATE: 09-Nov-18          TIME: 13:17:26  
 **********************************************************************************************************************************

 SHA1:             d673ad554fd0a1ae99daa449513f8b88cca0f763
 **********************************************************************************************************************************
 SETTING GEOMTYP        =    XYZ

 Variable memory set to  536000000 words,  buffer space 

 ZSYMEL=NOSYM
 ZUNIT=ANG

 SETTING CHARGE         =     0.00000000D+00                                  
 SETTING BASIS          =    SVP


 Recomputing integrals since basis changed


 Using spherical harmonics

 Library entry C      S def2-SVP             selected for orbital group  1
 Library entry C      P def2-SVP             selected for orbital group  1
 Library entry C      D def2-SVP             selected for orbital group  1
 Library entry H      S def2-SVP             selected for orbital group  2
 Library entry H      P def2-SVP             selected for orbital group  2
 Library entry N      S def2-SVP             selected for orbital group  8
 Library entry N      P def2-SVP             selected for orbital group  8
 Library entry N      D def2-SVP             selected for orbital group  8


 PROGRAM * SEWARD (Integral evaluation for generally contracted gaussian basis sets)     Author: Roland Lindh, 1990

 Geometry written to block  1 of record 700


 Point group  C1  



 ATOMIC COORDINATES

 NR  ATOM    CHARGE       X              Y              Z

   1  C0      6.00  -15.641370747    4.440507963   -0.049754099
   2  C1      6.00  -12.737339891    4.465637486   -0.140167375
   3  H2      1.00  -16.452984854    4.362009759   -1.983315422
   4  H3      1.00  -16.391562141    6.159377510    0.885856613
   5  H4      1.00  -16.350492719    2.775164051    1.006098957
   6  C5      6.00  -11.740713253    6.806784179   -1.363174032
   7  C6      6.00  -11.691868632    2.010595906   -1.332047513
   8  H7      1.00  -12.059131143    4.477675291    1.873635711
   9  H8      1.00  -12.816334048    8.587533046   -1.256908787
  10  H9      1.00   -9.762548968    6.938438663   -1.991254644
  11  H10     1.00  -12.760792883    6.054981588   -6.888684292
  12  H11     1.00  -12.328168648    1.913494793   -3.335824861
  13  H12     1.00  -12.605734446    0.383795421   -0.365812386
  14  C13     6.00   -8.821789553    1.708632436   -1.189530685
  15  H14     1.00   -7.807109511    3.177308591   -2.288390688
  16  H15     1.00   -8.219027992   -0.147593098   -1.950649422
  17  H16     1.00   -8.140726956    1.825765183    0.791880384
  18  C17     6.00  -12.982218668    5.632782742   -8.912040694
  19  N18     7.00  -13.226364779    5.162744798  -11.053985496

 Bond lengths in Bohr (Angstrom)

 1-2  2.905546638  1-3  2.098461058  1-4  2.095869044  1-5  2.095483235  2-6  2.823114907
     ( 1.537549066)     ( 1.110457770)     ( 1.109086135)     ( 1.108881974)     ( 1.493928072)

  2- 7  2.922467721   2- 8  2.124974090   6- 9  2.083103196   6-10  2.079651918   7-12  2.104621106
       ( 1.546503317)       ( 1.124487862)       ( 1.102330739)       ( 1.100504402)       ( 1.113717527)

  7-13  2.101247455   7-14  2.889437125  11-18  2.078762221  14-15  2.096205750  14-16  2.094802249
       ( 1.111932268)       ( 1.529024279)       ( 1.100033595)       ( 1.109264312)       ( 1.108521612)

 14-17  2.098465193  18-19  2.206461087
       ( 1.110459958)       ( 1.167608924)

 Bond angles

  1-2-6  111.93115943   1-2-7  111.28297678   1-2-8  106.83125183   2-1-3  110.99066727

  2- 1- 4  111.37985148   2- 1- 5  111.14817415   2- 6- 9  120.29991886   2- 6-10  121.27389130

  2- 7-12  108.59604258   2- 7-13  107.89393921   2- 7-14  115.02504750   3- 1- 4  107.67204096

  3-1-5  107.67777862   4-1-5  107.80128520   6-2-7  113.18328669   6-2-8  107.04834525

  7- 2- 8  106.08604597   7-14-15  112.44125475   7-14-16  111.13069525   7-14-17  111.29175153

  9- 6-10  116.90071828  11-18-19  179.36634029  12- 7-13  105.69971320  12- 7-14  110.02606719

 13- 7-14  109.17241960  15-14-16  106.92329474  15-14-17  107.38331531  16-14-17  107.40616309

 NUCLEAR CHARGE:                   55
 NUMBER OF PRIMITIVE AOS:         259
 NUMBER OF SYMMETRY AOS:          252
 NUMBER OF CONTRACTIONS:          158   (  158A   )
 NUMBER OF CORE ORBITALS:           7   (    7A   )
 NUMBER OF VALENCE ORBITALS:       40   (   40A   )


 NUCLEAR REPULSION ENERGY  265.52795116


 Eigenvalues of metric

         1 0.183E-02 0.359E-02 0.451E-02 0.603E-02 0.838E-02 0.182E-01 0.195E-01 0.203E-01


 OPERATOR DM      FOR CENTER  0  COORDINATES:    0.000000    0.000000    0.000000


 **********************************************************************************************************************************
 DATASETS  * FILE   NREC   LENGTH (MB)   RECORD NAMES
              1      18       31.21       500      610      700      900      950      970     1000      129      960     1100   
                                          VAR    BASINP    GEOM    SYMINP    ZMAT    AOBASIS   BASIS     P2S    ABASIS      S 
                                         1400     1410     1200     1210     1080     1600     1650     1700   
                                           T        V       H0       H01     AOSYM     SMH    MOLCAS    OPER   

 PROGRAMS   *        TOTAL       INT
 CPU TIMES  *         0.43      0.31
 REAL TIME  *         0.93 SEC
 DISK USED  *        31.83 MB
 **********************************************************************************************************************************


 PROGRAM * RHF-SCF (OPEN SHELL)       Authors: W. Meyer, H.-J. Werner


 NUMBER OF ELECTRONS:      28+   27-    SPACE SYMMETRY=1    SPIN SYMMETRY: Doublet 
 CONVERGENCE THRESHOLDS:    1.00E-06 (Density)    1.00E-07 (Energy)
 INTEGRAL THRESHOLDS:       1.00E-11 (Initial)    1.00E-11 (Final)
 MAX. NUMBER OF ITERATIONS:       60
 INTERPOLATION TYPE:            DIIS
 INTERPOLATION STEPS:              2 (START)      1 (STEP)
 LEVEL SHIFTS:                 -0.60 (CLOSED) -0.30 (OPEN) 




 Basis set DEF2-SVP/JKFIT generated.     Number of basis functions:   560 

 Orbital guess generated from atomic densities. Full valence occupancy:   28
 Using density fitting in orbital guess

 Coulomb and exchange fitting
 Thresholds for fitting:       THRAO_COUL= 1.0D-14    THRAO_EXCH= 1.0D-12    THRMO= 1.0D-11    THRPROD= 1.0D-11    THRASM= 1.0D-11
                               THR2HLF=    1.0D-11

 Molecular orbital dump at record        2100.2

 Initial alpha occupancy:  28
 Initial beta  occupancy:  27
 Wave function symmetry:    1

 ITERATION   DDIFF            GRAD            ENERGY        2-EL.EN.            DIPOLE MOMENTS         DIIS   CPU(IT)  CPU(TOT)  ORB.
    1      0.000D+00      0.000D+00      -288.25645383    722.794989    0.18962    0.18373    2.07818    0      0.7      1.5     start
    2      0.000D+00      0.401D-02      -288.33272397    720.251142    0.15608    0.11928    1.55248    1      0.7      2.2     diag,B
    3      0.299D-02      0.157D-02      -288.34776947    720.373121    0.17027    0.15909    1.58025    2      0.7      2.9     diag,B
    4      0.149D-02      0.746D-03      -288.35372036    720.335213    0.17121    0.16652    1.51448    3      0.7      3.5     diag,B
    5      0.126D-02      0.205D-03      -288.35432294    720.307194    0.17304    0.17513    1.50618    4      0.7      4.2     diag,B
    6      0.483D-03      0.732D-04      -288.35441618    720.278524    0.17353    0.17879    1.50188    5      0.7      4.9     diag,B
    7      0.216D-03      0.221D-04      -288.35442487    720.270865    0.17353    0.17940    1.50022    6      0.7      5.5     fixocc
    8      0.691D-04      0.674D-05      -288.35442573    720.270536    0.17343    0.17928    1.49946    7      0.7      6.2     diag,B
    9      0.255D-04      0.221D-05      -288.35442585    720.270735    0.17338    0.17914    1.49927    8      0.7      6.9     diag,B
   10      0.952D-05      0.690D-06      -288.35442586    720.270891    0.17336    0.17910    1.49924    9      0.7      7.6     orth
   11      0.274D-05      0.291D-06      -288.35442586    720.270887    0.17335    0.17908    1.49924    9      0.7      8.2     diag,B
   12      0.139D-05      0.107D-06      -288.35442586    720.270874    0.17335    0.17908    1.49923    9      0.7      8.9     diag,B
   13      0.568D-06      0.380D-07      -288.35442586    720.270869    0.17335    0.17908    1.49923    0      0.7      9.6     orth

 Final alpha occupancy:  28
 Final beta  occupancy:  27

 !RHF STATE  1.1 Energy              -288.354425860902
 Nuclear energy                       265.52795116
 One-electron energy                 -914.01781158
 Two-electron energy                  360.13543455
 Virial quotient                       -1.00689725
 !RHF STATE  1.1 Dipole moment          0.17334716     0.17907993     1.49923217
 Dipole moment /Debye                   0.44057568     0.45514596     3.81041850

 Orbital energies:

         1.1          2.1          3.1          4.1          5.1          6.1          7.1          8.1          9.1         10.1
    -15.598977   -11.299413   -11.247726   -11.243403   -11.239307   -11.236487   -11.234455    -1.211737    -1.090196    -0.989546

        11.1         12.1         13.1         14.1         15.1         16.1         17.1         18.1         19.1         20.1
     -0.906750    -0.849458    -0.786725    -0.753575    -0.640503    -0.627685    -0.590293    -0.578661    -0.571756    -0.553396

        21.1         22.1         23.1         24.1         25.1         26.1         27.1         28.1         29.1         30.1
     -0.523029    -0.509800    -0.487434    -0.487111    -0.484821    -0.476290    -0.468021    -0.373833     0.152209     0.172455


 HOMO     28.1    -0.373833 =     -10.1725eV
 LUMO     29.1     0.152209 =       4.1418eV
 LUMO-HOMO         0.526042 =      14.3143eV


 **********************************************************************************************************************************
 DATASETS  * FILE   NREC   LENGTH (MB)   RECORD NAMES
              1      18       31.21       500      610      700      900      950      970     1000      129      960     1100   
                                          VAR    BASINP    GEOM    SYMINP    ZMAT    AOBASIS   BASIS     P2S    ABASIS      S 
                                         1400     1410     1200     1210     1080     1600     1650     1700   
                                           T        V       H0       H01     AOSYM     SMH    MOLCAS    OPER   

              2       4        3.88       700     1000      520     2100   
                                         GEOM     BASIS   MCVARS     RHF  

 PROGRAMS   *        TOTAL     DF-HF       INT
 CPU TIMES  *        10.00      9.57      0.31
 REAL TIME  *        11.61 SEC
 DISK USED  *        68.27 MB
 **********************************************************************************************************************************

 Density functional group PBE=PBEX+PBEC
 Functional: PBEX(Automatically generated (new) PBEX)                          Gradient terms: 1
 Functional: PBEC(Automatically generated (new) PBEC)                          Gradient terms: 1
 Use libxcgrid:  F
 Use grid at  1800.2

 Functional: PBEX                      Factor:  1.0000
 Functional: PBEC                      Factor:  1.0000

 Generated new metagrid on record  1800.2 with target accuracy 1.0D-06 and 64116 points in CPU time    1.2
 Computed new grid on record 1800.1 in CPU time    1.4
  129907 words reserved for DFT integration

 PROGRAM * UKS-SCF (Unrestricted Kohn-Sham)     Authors: W. Meyer, H.-J. Werner, P.J. Knowles, 1993

 NUMBER OF ELECTRONS:      28+   27-    SPACE SYMMETRY=1    SPIN SYMMETRY: Doublet 
 CONVERGENCE THRESHOLDS:    1.00E-06 (Density)    1.00E-06 (Energy)
 INTEGRAL THRESHOLDS:       1.00E-11 (Initial)    1.00E-11 (Final)
 MAX. NUMBER OF ITERATIONS:       60
 INTERPOLATION TYPE:            DIIS
 INTERPOLATION STEPS:              2 (START)      1 (STEP)
 LEVEL SHIFTS:                 -0.20 (ALPHA)  -0.20 (BETA) 



 Use fine grid record 1800.2 for energy threshold  1.0D-06

 Basis set DEF2-SVP/JFIT generated.      Number of basis functions:   475 
 Coulomb fitting
 Screening thresholds:    THRAO_COUL= 1.0D-14    THRAO= 1.0D-12    THROV= 1.0D-12

 Reserved 6 MW to cache 100.0% of significant integrals. CPU: 0.3 sec

 Molecular orbitals read from record     2100.2  Type=RHF/CANONICAL (state 1.1)

 Molecular orbital dump at record        2200.2

 Initial alpha occupation  28
 Initial beta  occupation  27

 ITERATION    DDIFF          GRAD             ENERGY        2-EL.EN.            DIPOLE MOMENTS         DIIS  CPU(IT) CPU(TOT)
    1      0.000D+00      0.000D+00      -289.85713932    803.747086    0.17335    0.17908    1.49923    0      0.6      0.8
    2      0.411D-02      0.217D-02      -289.89796926    806.756483    0.15414    0.12370    1.39917    1      0.5      1.4
    3      0.133D-02      0.435D-03      -289.90136315    805.382566    0.15121    0.11352    1.38265    2      0.5      1.9
    4      0.689D-03      0.179D-03      -289.90220015    805.890412    0.14684    0.09623    1.36471    3      0.5      2.5
    5      0.274D-03      0.759D-04      -289.90230653    805.825909    0.15160    0.10183    1.40752    4      0.6      3.0
    6      0.124D-03      0.794D-04      -289.90238831    805.763459    0.14856    0.09378    1.38210    5      0.5      3.6
    7      0.752D-04      0.200D-04      -289.90240258    805.776039    0.14924    0.09393    1.38971    6      0.6      4.1
    8      0.278D-04      0.770D-05      -289.90240492    805.777096    0.14922    0.09268    1.39049    7      0.5      4.7
    9      0.116D-04      0.258D-05      -289.90240522    805.777810    0.14932    0.09290    1.39089    8      0.5      5.2
   10      0.447D-05      0.118D-05      -289.90240526    805.776928    0.14932    0.09277    1.39116    8      0.6      5.8
   11      0.126D-05      0.265D-06      -289.90240527    805.776994    0.14932    0.09275    1.39119    8      0.5      6.3
   12      0.302D-06      0.116D-06      -289.90240527    805.777045    0.14932    0.09277    1.39118    8      0.5      6.8
   13      0.159D-06      0.578D-07      -289.90240527    805.777001    0.14932    0.09277    1.39119    7      0.5      7.4

 Final alpha occupancy:  28
 Final beta  occupancy:  27

 !UKS STATE  1.1 Energy              -289.902405266375
 Nuclear energy                       265.52795116
 One-electron energy                 -915.05336432
 Two-electron energy                  402.88850031
 Density functional                   -43.26549242     PBEX=-41.50794834 PBEC= -1.75754408
 Virial quotient                       -1.01207402
 !UKS STATE  1.1 Dipole moment          0.14932416     0.09276881     1.39118584
 Dipole moment /Debye                   0.37951930     0.23577934     3.53581010

 Orbital energies for positive spin:

         1.1          2.1          3.1          4.1          5.1          6.1          7.1          8.1          9.1         10.1
    -14.009341    -9.946098    -9.919312    -9.918534    -9.906280    -9.900443    -9.898445    -0.818899    -0.741910    -0.664369

        11.1         12.1         13.1         14.1         15.1         16.1         17.1         18.1         19.1         20.1
     -0.611917    -0.562408    -0.528967    -0.499305    -0.424594    -0.414627    -0.386898    -0.374491    -0.354350    -0.330846

        21.1         22.1         23.1         24.1         25.1         26.1         27.1         28.1         29.1         30.1
     -0.320372    -0.317255    -0.315641    -0.315498    -0.308238    -0.294814    -0.292682    -0.184519    -0.022294    -0.019275

 Orbital energies for negative spin:

         1.1          2.1          3.1          4.1          5.1          6.1          7.1          8.1          9.1         10.1
    -14.009338    -9.945938    -9.919214    -9.906287    -9.905846    -9.900190    -9.898466    -0.818823    -0.736845    -0.662007

        11.1         12.1         13.1         14.1         15.1         16.1         17.1         18.1         19.1         20.1
     -0.595945    -0.559059    -0.528234    -0.491758    -0.420197    -0.410081    -0.384630    -0.373367    -0.350193    -0.328897

        21.1         22.1         23.1         24.1         25.1         26.1         27.1         28.1         29.1         30.1
     -0.317669    -0.317143    -0.315473    -0.315390    -0.304102    -0.292342    -0.290218    -0.106515    -0.022043    -0.019103


 HOMO     28.1    -0.184519 =      -5.0210eV
 LUMO    -28.1    -0.106515 =      -2.8984eV
 LUMO-HOMO         0.078003 =       2.1226eV

 EXPECTATION VALUE OF S**2:             0.75335202

 Occupation number threshold for pseudo-canonical orbitals: 1.9990 (occupied), 0.0010 (virtual)

 Number of pseudo-canonical occupied orbitals per symmetry:   26
 Number of active natural orbitals per symmetry:               3

 Natural orbitals saved to record    2200.2 (Orbital set 3)

 Orbital spaces for UNO-CAS (Min. occupation: 0.020  Max. occupation: 1.980):

 Closed:       27
 Active:        1


 **********************************************************************************************************************************
 DATASETS  * FILE   NREC   LENGTH (MB)   RECORD NAMES
              1      19       33.26       500      610      700      900      950      970     1000      129      960     1100   
                                          VAR    BASINP    GEOM    SYMINP    ZMAT    AOBASIS   BASIS     P2S    ABASIS      S 
                                         1400     1410     1200     1210     1080     1600     1650     1700     1800   
                                           T        V       H0       H01     AOSYM     SMH    MOLCAS    OPER     GRID   

              2       6        7.61       700     1000      520     2100     1800     2200   
                                         GEOM     BASIS   MCVARS     RHF     GRID      UKS  

 PROGRAMS   *        TOTAL    DF-UKS     DF-HF       INT
 CPU TIMES  *        18.79      8.79      9.57      0.31
 REAL TIME  *        20.58 SEC
 DISK USED  *        68.27 MB
 **********************************************************************************************************************************


 PROGRAM * OPT (Geometry optimization)     Authors: F. Eckert and H.-J. Werner


 BFGS update of hessian


********** USER DEFINED INT/FIX/CONSTRAINTS ****************

List of primitive internal coordinates

     N      Name     Type   Natoms   Atom list

     1    Bo0001     Bond        2      H10  C5  
     2    Bo0002     Bond        2      H10  C17 
     3    An0001     Angle       3      C5   H10  C17 

List of user defined internal/fixed coordinates and constraints

- - - - - - - - - - - - - - - - - - - - - - - - - - - - - - - - - 
    N      Name   Type      Pname     Coeff       Value   Unit
- - - - - - - - - - - - - - - - - - - - - - - - - - - - - - - - - 
    1    Cns001    Con     Bo0001     1.000     1.10000 Angstrom
- - - - - - - - - - - - - - - - - - - - - - - - - - - - - - - - - 
    2    Cns002    Con     Bo0002     1.000     1.20000 Angstrom
- - - - - - - - - - - - - - - - - - - - - - - - - - - - - - - - - 
    3    Cns003    Con     An0001     1.000   180.00000   Degree
- - - - - - - - - - - - - - - - - - - - - - - - - - - - - - - - - 


******************************************************************



 *** Long output written to logfile /mnt/storage/home/lb17101/optimizations/10/10_1.10_1.20.log ***


 Geometry optimization using default procedure for command CF-UKS-SCF

 Geometry written to block  1 of record 700

 SLAPAF optimizer by R. Lindh and Ignacio F. Galvan entered

 Constraints section
ConstraintsConstraintsConstraintsConstraintsConstraintsConstraintsConstraintsConstraintsConstraintsConstraints
ConstraintsConstraintsConstraintsConstraintsConstraintsConstraintsConstraintsConstraintsConstraintsConstraints
Constraints                                                                                        Constraints
Constraints                                 C O N S T R A I N T S                                  Constraints
Constraints                                                                                        Constraints

************************************************************************************************************************
BO0001 = BOND       H10   C5
BO0002 = BOND       H10   C17
AN0001 = ANGLE      C5    H10   C17
VALUES
BO0001 =      1.10000000 ANGSTROM
BO0002 =      1.20000000 ANGSTROM
AN0001 =    180.00000000 DEGREE
************************************************************************************************************************


 *************************************************************
 * Values of the primitive constraints                       *
 *************************************************************
 BO0001   : Bond Length=  2.999881 / Angstrom  5.668953 / bohr
 BO0002   : Bond Length=  1.100034 / Angstrom  2.078762 / bohr
 AN0001   : Angle=      174.1655   / Degree    3.039761 / rad

 *******************************************
 * Values of the constraints   / au or rad *
 *******************************************
   Label        C         C0
 Cns001      5.668953  2.078699
 Cns002      2.078762  2.267671
 Cns003      3.039761  3.141593


 ITER.   ENERGY(OLD)    ENERGY(NEW)      DE          GRADMAX     GRADNORM    GRADRMS     STEPMAX     STEPLEN     STEPRMS   CPU-time
   1  -289.90240527  -289.89971737     0.00268789  0.00679270  0.00902195  0.00119499  0.28034634  0.89129801  0.01563681     10.45

 Constraints section
ConstraintsConstraintsConstraintsConstraintsConstraintsConstraintsConstraintsConstraintsConstraintsConstraints
ConstraintsConstraintsConstraintsConstraintsConstraintsConstraintsConstraintsConstraintsConstraintsConstraints
Constraints                                                                                        Constraints
Constraints                                 C O N S T R A I N T S                                  Constraints
Constraints                                                                                        Constraints

************************************************************************************************************************
BO0001 = BOND       H10   C5
BO0002 = BOND       H10   C17
AN0001 = ANGLE      C5    H10   C17
VALUES
BO0001 =      1.10000000 ANGSTROM
BO0002 =      1.20000000 ANGSTROM
AN0001 =    180.00000000 DEGREE
************************************************************************************************************************


 *************************************************************
 * Values of the primitive constraints                       *
 *************************************************************
 BO0001   : Bond Length=  2.949551 / Angstrom  5.573844 / bohr
 BO0002   : Bond Length=  1.102694 / Angstrom  2.083789 / bohr
 AN0001   : Angle=      174.2457   / Degree    3.041162 / rad

 *******************************************
 * Values of the constraints   / au or rad *
 *******************************************
   Label        C         C0
 Cns001      5.573844  2.078699
 Cns002      2.083789  2.267671
 Cns003      3.041162  3.141593

   2  -289.89971737  -289.89980464    -0.00008727  0.02731247  0.05048786  0.00668728  0.85280875  2.20220608  0.03863519     22.10

 Constraints section
ConstraintsConstraintsConstraintsConstraintsConstraintsConstraintsConstraintsConstraintsConstraintsConstraints
ConstraintsConstraintsConstraintsConstraintsConstraintsConstraintsConstraintsConstraintsConstraintsConstraints
Constraints                                                                                        Constraints
Constraints                                 C O N S T R A I N T S                                  Constraints
Constraints                                                                                        Constraints

************************************************************************************************************************
BO0001 = BOND       H10   C5
BO0002 = BOND       H10   C17
AN0001 = ANGLE      C5    H10   C17
VALUES
BO0001 =      1.10000000 ANGSTROM
BO0002 =      1.20000000 ANGSTROM
AN0001 =    180.00000000 DEGREE
************************************************************************************************************************


 *************************************************************
 * Values of the primitive constraints                       *
 *************************************************************
 BO0001   : Bond Length=  2.842391 / Angstrom  5.371341 / bohr
 BO0002   : Bond Length=  1.108319 / Angstrom  2.094419 / bohr
 AN0001   : Angle=      174.5084   / Degree    3.045745 / rad

 *******************************************
 * Values of the constraints   / au or rad *
 *******************************************
   Label        C         C0
 Cns001      5.371341  2.078699
 Cns002      2.094419  2.267671
 Cns003      3.045745  3.141593

   3  -289.89980464  -289.89983390    -0.00002927  0.02062181  0.04530130  0.00600030  0.17783159  0.42540669  0.00746328     32.12

 Constraints section
ConstraintsConstraintsConstraintsConstraintsConstraintsConstraintsConstraintsConstraintsConstraintsConstraints
ConstraintsConstraintsConstraintsConstraintsConstraintsConstraintsConstraintsConstraintsConstraintsConstraints
Constraints                                                                                        Constraints
Constraints                                 C O N S T R A I N T S                                  Constraints
Constraints                                                                                        Constraints

************************************************************************************************************************
BO0001 = BOND       H10   C5
BO0002 = BOND       H10   C17
AN0001 = ANGLE      C5    H10   C17
VALUES
BO0001 =      1.10000000 ANGSTROM
BO0002 =      1.20000000 ANGSTROM
AN0001 =    180.00000000 DEGREE
************************************************************************************************************************


 *************************************************************
 * Values of the primitive constraints                       *
 *************************************************************
 BO0001   : Bond Length=  2.740925 / Angstrom  5.179598 / bohr
 BO0002   : Bond Length=  1.113671 / Angstrom  2.104534 / bohr
 AN0001   : Angle=      174.8354   / Degree    3.051453 / rad

 *******************************************
 * Values of the constraints   / au or rad *
 *******************************************
   Label        C         C0
 Cns001      5.179598  2.078699
 Cns002      2.104534  2.267671
 Cns003      3.051453  3.141593

   4  -289.89983390  -289.89726138     0.00257252  0.03256838  0.05076995  0.00672464  0.10431295  0.31393065  0.00550756     42.21

 Constraints section
ConstraintsConstraintsConstraintsConstraintsConstraintsConstraintsConstraintsConstraintsConstraintsConstraints
ConstraintsConstraintsConstraintsConstraintsConstraintsConstraintsConstraintsConstraintsConstraintsConstraints
Constraints                                                                                        Constraints
Constraints                                 C O N S T R A I N T S                                  Constraints
Constraints                                                                                        Constraints

************************************************************************************************************************
BO0001 = BOND       H10   C5
BO0002 = BOND       H10   C17
AN0001 = ANGLE      C5    H10   C17
VALUES
BO0001 =      1.10000000 ANGSTROM
BO0002 =      1.20000000 ANGSTROM
AN0001 =    180.00000000 DEGREE
************************************************************************************************************************


 *************************************************************
 * Values of the primitive constraints                       *
 *************************************************************
 BO0001   : Bond Length=  2.685371 / Angstrom  5.074616 / bohr
 BO0002   : Bond Length=  1.116607 / Angstrom  2.110081 / bohr
 AN0001   : Angle=      175.0110   / Degree    3.054519 / rad

 *******************************************
 * Values of the constraints   / au or rad *
 *******************************************
   Label        C         C0
 Cns001      5.074616  2.078699
 Cns002      2.110081  2.267671
 Cns003      3.054519  3.141593

   5  -289.89726138  -289.89429551     0.00296587  0.05645051  0.08135215  0.01077536  0.10380654  0.26921420  0.00472306     52.37

 Constraints section
ConstraintsConstraintsConstraintsConstraintsConstraintsConstraintsConstraintsConstraintsConstraintsConstraints
ConstraintsConstraintsConstraintsConstraintsConstraintsConstraintsConstraintsConstraintsConstraintsConstraints
Constraints                                                                                        Constraints
Constraints                                 C O N S T R A I N T S                                  Constraints
Constraints                                                                                        Constraints

************************************************************************************************************************
BO0001 = BOND       H10   C5
BO0002 = BOND       H10   C17
AN0001 = ANGLE      C5    H10   C17
VALUES
BO0001 =      1.10000000 ANGSTROM
BO0002 =      1.20000000 ANGSTROM
AN0001 =    180.00000000 DEGREE
************************************************************************************************************************


 *************************************************************
 * Values of the primitive constraints                       *
 *************************************************************
 BO0001   : Bond Length=  2.629861 / Angstrom  4.969717 / bohr
 BO0002   : Bond Length=  1.119534 / Angstrom  2.115612 / bohr
 AN0001   : Angle=      175.1873   / Degree    3.057595 / rad

 *******************************************
 * Values of the constraints   / au or rad *
 *******************************************
   Label        C         C0
 Cns001      4.969717  2.078699
 Cns002      2.115612  2.267671
 Cns003      3.057595  3.141593

   6  -289.89429551  -289.90197924    -0.00768373  0.07216129  0.10614156  0.01405879  0.15860325  0.36328374  0.00637340     62.47

 Constraints section
ConstraintsConstraintsConstraintsConstraintsConstraintsConstraintsConstraintsConstraintsConstraintsConstraints
ConstraintsConstraintsConstraintsConstraintsConstraintsConstraintsConstraintsConstraintsConstraintsConstraints
Constraints                                                                                        Constraints
Constraints                                 C O N S T R A I N T S                                  Constraints
Constraints                                                                                        Constraints

************************************************************************************************************************
BO0001 = BOND       H10   C5
BO0002 = BOND       H10   C17
AN0001 = ANGLE      C5    H10   C17
VALUES
BO0001 =      1.10000000 ANGSTROM
BO0002 =      1.20000000 ANGSTROM
AN0001 =    180.00000000 DEGREE
************************************************************************************************************************


 *************************************************************
 * Values of the primitive constraints                       *
 *************************************************************
 BO0001   : Bond Length=  2.550627 / Angstrom  4.819987 / bohr
 BO0002   : Bond Length=  1.123701 / Angstrom  2.123487 / bohr
 AN0001   : Angle=      175.3062   / Degree    3.059670 / rad

 *******************************************
 * Values of the constraints   / au or rad *
 *******************************************
   Label        C         C0
 Cns001      4.819987  2.078699
 Cns002      2.123487  2.267671
 Cns003      3.059670  3.141593

   7  -289.90197924  -289.90285901    -0.00087978  0.02004576  0.03748012  0.00496436  0.17522773  0.42904267  0.00752706     72.52

 Constraints section
ConstraintsConstraintsConstraintsConstraintsConstraintsConstraintsConstraintsConstraintsConstraintsConstraints
ConstraintsConstraintsConstraintsConstraintsConstraintsConstraintsConstraintsConstraintsConstraintsConstraints
Constraints                                                                                        Constraints
Constraints                                 C O N S T R A I N T S                                  Constraints
Constraints                                                                                        Constraints

************************************************************************************************************************
BO0001 = BOND       H10   C5
BO0002 = BOND       H10   C17
AN0001 = ANGLE      C5    H10   C17
VALUES
BO0001 =      1.10000000 ANGSTROM
BO0002 =      1.20000000 ANGSTROM
AN0001 =    180.00000000 DEGREE
************************************************************************************************************************


 *************************************************************
 * Values of the primitive constraints                       *
 *************************************************************
 BO0001   : Bond Length=  2.471396 / Angstrom  4.670261 / bohr
 BO0002   : Bond Length=  1.127869 / Angstrom  2.131363 / bohr
 AN0001   : Angle=      174.4382   / Degree    3.044521 / rad

 *******************************************
 * Values of the constraints   / au or rad *
 *******************************************
   Label        C         C0
 Cns001      4.670261  2.078699
 Cns002      2.131363  2.267671
 Cns003      3.044521  3.141593

   8  -289.90285901  -289.90298093    -0.00012192  0.01960289  0.02868967  0.00380004  0.12336697  0.35806694  0.00628188     82.02

 Constraints section
ConstraintsConstraintsConstraintsConstraintsConstraintsConstraintsConstraintsConstraintsConstraintsConstraints
ConstraintsConstraintsConstraintsConstraintsConstraintsConstraintsConstraintsConstraintsConstraintsConstraints
Constraints                                                                                        Constraints
Constraints                                 C O N S T R A I N T S                                  Constraints
Constraints                                                                                        Constraints

************************************************************************************************************************
BO0001 = BOND       H10   C5
BO0002 = BOND       H10   C17
AN0001 = ANGLE      C5    H10   C17
VALUES
BO0001 =      1.10000000 ANGSTROM
BO0002 =      1.20000000 ANGSTROM
AN0001 =    180.00000000 DEGREE
************************************************************************************************************************


 *************************************************************
 * Values of the primitive constraints                       *
 *************************************************************
 BO0001   : Bond Length=  2.360150 / Angstrom  4.460037 / bohr
 BO0002   : Bond Length=  1.133720 / Angstrom  2.142420 / bohr
 AN0001   : Angle=      174.8564   / Degree    3.051820 / rad

 *******************************************
 * Values of the constraints   / au or rad *
 *******************************************
   Label        C         C0
 Cns001      4.460037  2.078699
 Cns002      2.142420  2.267671
 Cns003      3.051820  3.141593

   9  -289.90298093  -289.90220408     0.00077685  0.02082457  0.03059425  0.00405231  0.19489084  0.39917444  0.00700306     92.26

 Constraints section
ConstraintsConstraintsConstraintsConstraintsConstraintsConstraintsConstraintsConstraintsConstraintsConstraints
ConstraintsConstraintsConstraintsConstraintsConstraintsConstraintsConstraintsConstraintsConstraintsConstraints
Constraints                                                                                        Constraints
Constraints                                 C O N S T R A I N T S                                  Constraints
Constraints                                                                                        Constraints

************************************************************************************************************************
BO0001 = BOND       H10   C5
BO0002 = BOND       H10   C17
AN0001 = ANGLE      C5    H10   C17
VALUES
BO0001 =      1.10000000 ANGSTROM
BO0002 =      1.20000000 ANGSTROM
AN0001 =    180.00000000 DEGREE
************************************************************************************************************************


 *************************************************************
 * Values of the primitive constraints                       *
 *************************************************************
 BO0001   : Bond Length=  2.280939 / Angstrom  4.310350 / bohr
 BO0002   : Bond Length=  1.137886 / Angstrom  2.150293 / bohr
 AN0001   : Angle=      175.1796   / Degree    3.057460 / rad

 *******************************************
 * Values of the constraints   / au or rad *
 *******************************************
   Label        C         C0
 Cns001      4.310350  2.078699
 Cns002      2.150293  2.267671
 Cns003      3.057460  3.141593

  10  -289.90220408  -289.90188865     0.00031543  0.01996055  0.03507939  0.00464638  0.21414662  0.46019084  0.00807352    102.38

 Constraints section
ConstraintsConstraintsConstraintsConstraintsConstraintsConstraintsConstraintsConstraintsConstraintsConstraints
ConstraintsConstraintsConstraintsConstraintsConstraintsConstraintsConstraintsConstraintsConstraintsConstraints
Constraints                                                                                        Constraints
Constraints                                 C O N S T R A I N T S                                  Constraints
Constraints                                                                                        Constraints

************************************************************************************************************************
BO0001 = BOND       H10   C5
BO0002 = BOND       H10   C17
AN0001 = ANGLE      C5    H10   C17
VALUES
BO0001 =      1.10000000 ANGSTROM
BO0002 =      1.20000000 ANGSTROM
AN0001 =    180.00000000 DEGREE
************************************************************************************************************************


 *************************************************************
 * Values of the primitive constraints                       *
 *************************************************************
 BO0001   : Bond Length=  2.122514 / Angstrom  4.010970 / bohr
 BO0002   : Bond Length=  1.146219 / Angstrom  2.166040 / bohr
 AN0001   : Angle=      175.7859   / Degree    3.068042 / rad

 *******************************************
 * Values of the constraints   / au or rad *
 *******************************************
   Label        C         C0
 Cns001      4.010970  2.078699
 Cns002      2.166040  2.267671
 Cns003      3.068042  3.141593

  11  -289.90188865  -289.90014976     0.00173889  0.02194534  0.03738077  0.00495120  0.34022875  0.79732630  0.01398818    113.11

 Constraints section
ConstraintsConstraintsConstraintsConstraintsConstraintsConstraintsConstraintsConstraintsConstraintsConstraints
ConstraintsConstraintsConstraintsConstraintsConstraintsConstraintsConstraintsConstraintsConstraintsConstraints
Constraints                                                                                        Constraints
Constraints                                 C O N S T R A I N T S                                  Constraints
Constraints                                                                                        Constraints

************************************************************************************************************************
BO0001 = BOND       H10   C5
BO0002 = BOND       H10   C17
AN0001 = ANGLE      C5    H10   C17
VALUES
BO0001 =      1.10000000 ANGSTROM
BO0002 =      1.20000000 ANGSTROM
AN0001 =    180.00000000 DEGREE
************************************************************************************************************************


 *************************************************************
 * Values of the primitive constraints                       *
 *************************************************************
 BO0001   : Bond Length=  2.043304 / Angstrom  3.861285 / bohr
 BO0002   : Bond Length=  1.150385 / Angstrom  2.173913 / bohr
 AN0001   : Angle=      176.1074   / Degree    3.073653 / rad

 *******************************************
 * Values of the constraints   / au or rad *
 *******************************************
   Label        C         C0
 Cns001      3.861285  2.078699
 Cns002      2.173913  2.267671
 Cns003      3.073653  3.141593

  12  -289.90014976  -289.89962242     0.00052734  0.02071317  0.03824556  0.00506575  0.52864484  1.18508080  0.02079089    123.87

 Constraints section
ConstraintsConstraintsConstraintsConstraintsConstraintsConstraintsConstraintsConstraintsConstraintsConstraints
ConstraintsConstraintsConstraintsConstraintsConstraintsConstraintsConstraintsConstraintsConstraintsConstraints
Constraints                                                                                        Constraints
Constraints                                 C O N S T R A I N T S                                  Constraints
Constraints                                                                                        Constraints

************************************************************************************************************************
BO0001 = BOND       H10   C5
BO0002 = BOND       H10   C17
AN0001 = ANGLE      C5    H10   C17
VALUES
BO0001 =      1.10000000 ANGSTROM
BO0002 =      1.20000000 ANGSTROM
AN0001 =    180.00000000 DEGREE
************************************************************************************************************************


 *************************************************************
 * Values of the primitive constraints                       *
 *************************************************************
 BO0001   : Bond Length=  1.820744 / Angstrom  3.440707 / bohr
 BO0002   : Bond Length=  1.162091 / Angstrom  2.196034 / bohr
 AN0001   : Angle=      177.0273   / Degree    3.089709 / rad

 *******************************************
 * Values of the constraints   / au or rad *
 *******************************************
   Label        C         C0
 Cns001      3.440707  2.078699
 Cns002      2.196034  2.267671
 Cns003      3.089709  3.141593

  13  -289.89962242  -289.89861417     0.00100825  0.01952117  0.03609844  0.00478136  0.13564893  0.27717819  0.00486278    134.33

 Constraints section
ConstraintsConstraintsConstraintsConstraintsConstraintsConstraintsConstraintsConstraintsConstraintsConstraints
ConstraintsConstraintsConstraintsConstraintsConstraintsConstraintsConstraintsConstraintsConstraintsConstraints
Constraints                                                                                        Constraints
Constraints                                 C O N S T R A I N T S                                  Constraints
Constraints                                                                                        Constraints

************************************************************************************************************************
BO0001 = BOND       H10   C5
BO0002 = BOND       H10   C17
AN0001 = ANGLE      C5    H10   C17
VALUES
BO0001 =      1.10000000 ANGSTROM
BO0002 =      1.20000000 ANGSTROM
AN0001 =    180.00000000 DEGREE
************************************************************************************************************************


 *************************************************************
 * Values of the primitive constraints                       *
 *************************************************************
 BO0001   : Bond Length=  1.719770 / Angstrom  3.249895 / bohr
 BO0002   : Bond Length=  1.167402 / Angstrom  2.206070 / bohr
 AN0001   : Angle=      177.3741   / Degree    3.095763 / rad

 *******************************************
 * Values of the constraints   / au or rad *
 *******************************************
   Label        C         C0
 Cns001      3.249895  2.078699
 Cns002      2.206070  2.267671
 Cns003      3.095763  3.141593

  14  -289.89861417  -289.89704005     0.00157413  0.01688352  0.02405660  0.00318637  0.19761480  0.51603372  0.00905322    144.92

 Constraints section
ConstraintsConstraintsConstraintsConstraintsConstraintsConstraintsConstraintsConstraintsConstraintsConstraints
ConstraintsConstraintsConstraintsConstraintsConstraintsConstraintsConstraintsConstraintsConstraintsConstraints
Constraints                                                                                        Constraints
Constraints                                 C O N S T R A I N T S                                  Constraints
Constraints                                                                                        Constraints

************************************************************************************************************************
BO0001 = BOND       H10   C5
BO0002 = BOND       H10   C17
AN0001 = ANGLE      C5    H10   C17
VALUES
BO0001 =      1.10000000 ANGSTROM
BO0002 =      1.20000000 ANGSTROM
AN0001 =    180.00000000 DEGREE
************************************************************************************************************************


 *************************************************************
 * Values of the primitive constraints                       *
 *************************************************************
 BO0001   : Bond Length=  1.640564 / Angstrom  3.100216 / bohr
 BO0002   : Bond Length=  1.171568 / Angstrom  2.213943 / bohr
 AN0001   : Angle=      175.7547   / Degree    3.067498 / rad

 *******************************************
 * Values of the constraints   / au or rad *
 *******************************************
   Label        C         C0
 Cns001      3.100216  2.078699
 Cns002      2.213943  2.267671
 Cns003      3.067498  3.141593

  15  -289.89704005  -289.89374864     0.00329140  0.01475711  0.02275435  0.00301389  0.29848904  0.76773985  0.01346912    156.16

 Constraints section
ConstraintsConstraintsConstraintsConstraintsConstraintsConstraintsConstraintsConstraintsConstraintsConstraints
ConstraintsConstraintsConstraintsConstraintsConstraintsConstraintsConstraintsConstraintsConstraintsConstraints
Constraints                                                                                        Constraints
Constraints                                 C O N S T R A I N T S                                  Constraints
Constraints                                                                                        Constraints

************************************************************************************************************************
BO0001 = BOND       H10   C5
BO0002 = BOND       H10   C17
AN0001 = ANGLE      C5    H10   C17
VALUES
BO0001 =      1.10000000 ANGSTROM
BO0002 =      1.20000000 ANGSTROM
AN0001 =    180.00000000 DEGREE
************************************************************************************************************************


 *************************************************************
 * Values of the primitive constraints                       *
 *************************************************************
 BO0001   : Bond Length=  1.526738 / Angstrom  2.885117 / bohr
 BO0002   : Bond Length=  1.177555 / Angstrom  2.225257 / bohr
 AN0001   : Angle=      175.6165   / Degree    3.065086 / rad

 *******************************************
 * Values of the constraints   / au or rad *
 *******************************************
   Label        C         C0
 Cns001      2.885117  2.078699
 Cns002      2.225257  2.267671
 Cns003      3.065086  3.141593

  16  -289.89374864  -289.88916812     0.00458052  0.01386274  0.02685401  0.00355690  0.23465083  0.56595937  0.00992911    167.37

 Constraints section
ConstraintsConstraintsConstraintsConstraintsConstraintsConstraintsConstraintsConstraintsConstraintsConstraints
ConstraintsConstraintsConstraintsConstraintsConstraintsConstraintsConstraintsConstraintsConstraintsConstraints
Constraints                                                                                        Constraints
Constraints                                 C O N S T R A I N T S                                  Constraints
Constraints                                                                                        Constraints

************************************************************************************************************************
BO0001 = BOND       H10   C5
BO0002 = BOND       H10   C17
AN0001 = ANGLE      C5    H10   C17
VALUES
BO0001 =      1.10000000 ANGSTROM
BO0002 =      1.20000000 ANGSTROM
AN0001 =    180.00000000 DEGREE
************************************************************************************************************************


 *************************************************************
 * Values of the primitive constraints                       *
 *************************************************************
 BO0001   : Bond Length=  1.418474 / Angstrom  2.680528 / bohr
 BO0002   : Bond Length=  1.183250 / Angstrom  2.236018 / bohr
 AN0001   : Angle=      175.0485   / Degree    3.055172 / rad

 *******************************************
 * Values of the constraints   / au or rad *
 *******************************************
   Label        C         C0
 Cns001      2.680528  2.078699
 Cns002      2.236018  2.267671
 Cns003      3.055172  3.141593

  17  -289.88916812  -289.87831876     0.01084936  0.02626203  0.04036720  0.00534677  0.18205687  0.42584983  0.00747105    178.85

 Constraints section
ConstraintsConstraintsConstraintsConstraintsConstraintsConstraintsConstraintsConstraintsConstraintsConstraints
ConstraintsConstraintsConstraintsConstraintsConstraintsConstraintsConstraintsConstraintsConstraintsConstraints
Constraints                                                                                        Constraints
Constraints                                 C O N S T R A I N T S                                  Constraints
Constraints                                                                                        Constraints

************************************************************************************************************************
BO0001 = BOND       H10   C5
BO0002 = BOND       H10   C17
AN0001 = ANGLE      C5    H10   C17
VALUES
BO0001 =      1.10000000 ANGSTROM
BO0002 =      1.20000000 ANGSTROM
AN0001 =    180.00000000 DEGREE
************************************************************************************************************************


 *************************************************************
 * Values of the primitive constraints                       *
 *************************************************************
 BO0001   : Bond Length=  1.263744 / Angstrom  2.388131 / bohr
 BO0002   : Bond Length=  1.191388 / Angstrom  2.251397 / bohr
 AN0001   : Angle=      177.3239   / Degree    3.094885 / rad

 *******************************************
 * Values of the constraints   / au or rad *
 *******************************************
   Label        C         C0
 Cns001      2.388131  2.078699
 Cns002      2.251397  2.267671
 Cns003      3.094885  3.141593

  18  -289.87831876  -289.86982840     0.00849036  0.04247950  0.06113725  0.00809783  0.10091849  0.26369669  0.00462626    190.36

 Constraints section
ConstraintsConstraintsConstraintsConstraintsConstraintsConstraintsConstraintsConstraintsConstraintsConstraints
ConstraintsConstraintsConstraintsConstraintsConstraintsConstraintsConstraintsConstraintsConstraintsConstraints
Constraints                                                                                        Constraints
Constraints                                 C O N S T R A I N T S                                  Constraints
Constraints                                                                                        Constraints

************************************************************************************************************************
BO0001 = BOND       H10   C5
BO0002 = BOND       H10   C17
AN0001 = ANGLE      C5    H10   C17
VALUES
BO0001 =      1.10000000 ANGSTROM
BO0002 =      1.20000000 ANGSTROM
AN0001 =    180.00000000 DEGREE
************************************************************************************************************************


 *************************************************************
 * Values of the primitive constraints                       *
 *************************************************************
 BO0001   : Bond Length=  1.185436 / Angstrom  2.240150 / bohr
 BO0002   : Bond Length=  1.195506 / Angstrom  2.259180 / bohr
  Valence angle close to end in range of definition
 AN0001   : Angle=      177.7726   / Degree    3.102717 / rad

 *******************************************
 * Values of the constraints   / au or rad *
 *******************************************
   Label        C         C0
 Cns001      2.240150  2.078699
 Cns002      2.259180  2.267671
 Cns003      3.102717  3.141593

  19  -289.86982840  -289.85545860     0.01436979  0.06709015  0.09295225  0.01231183  0.09132114  0.24091530  0.00422658    201.65

 Constraints section
ConstraintsConstraintsConstraintsConstraintsConstraintsConstraintsConstraintsConstraintsConstraintsConstraints
ConstraintsConstraintsConstraintsConstraintsConstraintsConstraintsConstraintsConstraintsConstraintsConstraints
Constraints                                                                                        Constraints
Constraints                                 C O N S T R A I N T S                                  Constraints
Constraints                                                                                        Constraints

************************************************************************************************************************
BO0001 = BOND       H10   C5
BO0002 = BOND       H10   C17
AN0001 = ANGLE      C5    H10   C17
VALUES
BO0001 =      1.10000000 ANGSTROM
BO0002 =      1.20000000 ANGSTROM
AN0001 =    180.00000000 DEGREE
************************************************************************************************************************


 *************************************************************
 * Values of the primitive constraints                       *
 *************************************************************
 BO0001   : Bond Length=  1.100000 / Angstrom  2.078698 / bohr
 BO0002   : Bond Length=  1.200000 / Angstrom  2.267672 / bohr
  Valence angle close to end in range of definition
 AN0001   : Angle=      179.5415   / Degree    3.133591 / rad

 *******************************************
 * Values of the constraints   / au or rad *
 *******************************************
   Label        C         C0
 Cns001      2.078698  2.078699
 Cns002      2.267672  2.267671
 Cns003      3.133591  3.141593

  20  -289.85545860  -289.85570379    -0.00024518  0.10748270  0.14452036  0.01914219  0.03849455  0.11542643  0.00202503    212.45

 Constraints section
ConstraintsConstraintsConstraintsConstraintsConstraintsConstraintsConstraintsConstraintsConstraintsConstraints
ConstraintsConstraintsConstraintsConstraintsConstraintsConstraintsConstraintsConstraintsConstraintsConstraints
Constraints                                                                                        Constraints
Constraints                                 C O N S T R A I N T S                                  Constraints
Constraints                                                                                        Constraints

************************************************************************************************************************
BO0001 = BOND       H10   C5
BO0002 = BOND       H10   C17
AN0001 = ANGLE      C5    H10   C17
VALUES
BO0001 =      1.10000000 ANGSTROM
BO0002 =      1.20000000 ANGSTROM
AN0001 =    180.00000000 DEGREE
************************************************************************************************************************


 *************************************************************
 * Values of the primitive constraints                       *
 *************************************************************
 BO0001   : Bond Length=  1.100000 / Angstrom  2.078699 / bohr
 BO0002   : Bond Length=  1.200000 / Angstrom  2.267671 / bohr
  Valence angle close to end in range of definition
 AN0001   : Angle=      179.4884   / Degree    3.132664 / rad

 *******************************************
 * Values of the constraints   / au or rad *
 *******************************************
   Label        C         C0
 Cns001      2.078699  2.078699
 Cns002      2.267671  2.267671
 Cns003      3.132664  3.141593

  21  -289.85570379  -289.85593911    -0.00023532  0.10944672  0.14653693  0.01940929  0.05368195  0.17238547  0.00302431    223.21

 Constraints section
ConstraintsConstraintsConstraintsConstraintsConstraintsConstraintsConstraintsConstraintsConstraintsConstraints
ConstraintsConstraintsConstraintsConstraintsConstraintsConstraintsConstraintsConstraintsConstraintsConstraints
Constraints                                                                                        Constraints
Constraints                                 C O N S T R A I N T S                                  Constraints
Constraints                                                                                        Constraints

************************************************************************************************************************
BO0001 = BOND       H10   C5
BO0002 = BOND       H10   C17
AN0001 = ANGLE      C5    H10   C17
VALUES
BO0001 =      1.10000000 ANGSTROM
BO0002 =      1.20000000 ANGSTROM
AN0001 =    180.00000000 DEGREE
************************************************************************************************************************


 *************************************************************
 * Values of the primitive constraints                       *
 *************************************************************
 BO0001   : Bond Length=  1.100000 / Angstrom  2.078699 / bohr
 BO0002   : Bond Length=  1.200000 / Angstrom  2.267671 / bohr
  Valence angle close to end in range of definition
 AN0001   : Angle=      179.1591   / Degree    3.126916 / rad

 *******************************************
 * Values of the constraints   / au or rad *
 *******************************************
   Label        C         C0
 Cns001      2.078699  2.078699
 Cns002      2.267671  2.267671
 Cns003      3.126916  3.141593

  22  -289.85593911  -289.85601267    -0.00007356  0.11103456  0.14714456  0.01948977  0.02560540  0.06641319  0.00116514    233.36

 Constraints section
ConstraintsConstraintsConstraintsConstraintsConstraintsConstraintsConstraintsConstraintsConstraintsConstraints
ConstraintsConstraintsConstraintsConstraintsConstraintsConstraintsConstraintsConstraintsConstraintsConstraints
Constraints                                                                                        Constraints
Constraints                                 C O N S T R A I N T S                                  Constraints
Constraints                                                                                        Constraints

************************************************************************************************************************
BO0001 = BOND       H10   C5
BO0002 = BOND       H10   C17
AN0001 = ANGLE      C5    H10   C17
VALUES
BO0001 =      1.10000000 ANGSTROM
BO0002 =      1.20000000 ANGSTROM
AN0001 =    180.00000000 DEGREE
************************************************************************************************************************


 *************************************************************
 * Values of the primitive constraints                       *
 *************************************************************
 BO0001   : Bond Length=  1.100000 / Angstrom  2.078699 / bohr
 BO0002   : Bond Length=  1.200000 / Angstrom  2.267671 / bohr
  Valence angle close to end in range of definition
 AN0001   : Angle=      179.9036   / Degree    3.139910 / rad

 *******************************************
 * Values of the constraints   / au or rad *
 *******************************************
   Label        C         C0
 Cns001      2.078699  2.078699
 Cns002      2.267671  2.267671
 Cns003      3.139910  3.141593

  23  -289.85601267  -289.85620369    -0.00019103  0.11100836  0.14690326  0.01945781  0.07928601  0.16294642  0.00285871    244.20

 Constraints section
ConstraintsConstraintsConstraintsConstraintsConstraintsConstraintsConstraintsConstraintsConstraintsConstraints
ConstraintsConstraintsConstraintsConstraintsConstraintsConstraintsConstraintsConstraintsConstraintsConstraints
Constraints                                                                                        Constraints
Constraints                                 C O N S T R A I N T S                                  Constraints
Constraints                                                                                        Constraints

************************************************************************************************************************
BO0001 = BOND       H10   C5
BO0002 = BOND       H10   C17
AN0001 = ANGLE      C5    H10   C17
VALUES
BO0001 =      1.10000000 ANGSTROM
BO0002 =      1.20000000 ANGSTROM
AN0001 =    180.00000000 DEGREE
************************************************************************************************************************


 *************************************************************
 * Values of the primitive constraints                       *
 *************************************************************
 BO0001   : Bond Length=  1.100000 / Angstrom  2.078699 / bohr
 BO0002   : Bond Length=  1.200000 / Angstrom  2.267671 / bohr
  Valence angle close to end in range of definition
 AN0001   : Angle=      179.9202   / Degree    3.140199 / rad

 *******************************************
 * Values of the constraints   / au or rad *
 *******************************************
   Label        C         C0
 Cns001      2.078699  2.078699
 Cns002      2.267671  2.267671
 Cns003      3.140199  3.141593

  24  -289.85620369  -289.85669577    -0.00049208  0.11071593  0.14616392  0.01935988  0.35019836  0.63062504  0.01106360    256.82

 Constraints section
ConstraintsConstraintsConstraintsConstraintsConstraintsConstraintsConstraintsConstraintsConstraintsConstraints
ConstraintsConstraintsConstraintsConstraintsConstraintsConstraintsConstraintsConstraintsConstraintsConstraints
Constraints                                                                                        Constraints
Constraints                                 C O N S T R A I N T S                                  Constraints
Constraints                                                                                        Constraints

************************************************************************************************************************
BO0001 = BOND       H10   C5
BO0002 = BOND       H10   C17
AN0001 = ANGLE      C5    H10   C17
VALUES
BO0001 =      1.10000000 ANGSTROM
BO0002 =      1.20000000 ANGSTROM
AN0001 =    180.00000000 DEGREE
************************************************************************************************************************


 *************************************************************
 * Values of the primitive constraints                       *
 *************************************************************
 BO0001   : Bond Length=  1.100000 / Angstrom  2.078699 / bohr
 BO0002   : Bond Length=  1.200000 / Angstrom  2.267671 / bohr
  Valence angle close to end in range of definition
 AN0001   : Angle=      179.9796   / Degree    3.141237 / rad

 *******************************************
 * Values of the constraints   / au or rad *
 *******************************************
   Label        C         C0
 Cns001      2.078699  2.078699
 Cns002      2.267671  2.267671
 Cns003      3.141237  3.141593

  25  -289.85669577  -289.85725163    -0.00055586  0.10524820  0.13924861  0.01844393  0.30829270  0.52720097  0.00924914    268.89

 Constraints section
ConstraintsConstraintsConstraintsConstraintsConstraintsConstraintsConstraintsConstraintsConstraintsConstraints
ConstraintsConstraintsConstraintsConstraintsConstraintsConstraintsConstraintsConstraintsConstraintsConstraints
Constraints                                                                                        Constraints
Constraints                                 C O N S T R A I N T S                                  Constraints
Constraints                                                                                        Constraints

************************************************************************************************************************
BO0001 = BOND       H10   C5
BO0002 = BOND       H10   C17
AN0001 = ANGLE      C5    H10   C17
VALUES
BO0001 =      1.10000000 ANGSTROM
BO0002 =      1.20000000 ANGSTROM
AN0001 =    180.00000000 DEGREE
************************************************************************************************************************


 *************************************************************
 * Values of the primitive constraints                       *
 *************************************************************
 BO0001   : Bond Length=  1.099999 / Angstrom  2.078697 / bohr
 BO0002   : Bond Length=  1.199999 / Angstrom  2.267670 / bohr
 AN0001   : Angle=      177.4870   / Degree    3.097732 / rad

 *******************************************
 * Values of the constraints   / au or rad *
 *******************************************
   Label        C         C0
 Cns001      2.078697  2.078699
 Cns002      2.267670  2.267671
 Cns003      3.097732  3.141593

  26  -289.85725163  -289.85716220     0.00008943  0.10126670  0.13413601  0.01776675  0.08036996  0.15923750  0.00279364    279.56

 Constraints section
ConstraintsConstraintsConstraintsConstraintsConstraintsConstraintsConstraintsConstraintsConstraintsConstraints
ConstraintsConstraintsConstraintsConstraintsConstraintsConstraintsConstraintsConstraintsConstraintsConstraints
Constraints                                                                                        Constraints
Constraints                                 C O N S T R A I N T S                                  Constraints
Constraints                                                                                        Constraints

************************************************************************************************************************
BO0001 = BOND       H10   C5
BO0002 = BOND       H10   C17
AN0001 = ANGLE      C5    H10   C17
VALUES
BO0001 =      1.10000000 ANGSTROM
BO0002 =      1.20000000 ANGSTROM
AN0001 =    180.00000000 DEGREE
************************************************************************************************************************


 *************************************************************
 * Values of the primitive constraints                       *
 *************************************************************
 BO0001   : Bond Length=  1.100000 / Angstrom  2.078699 / bohr
 BO0002   : Bond Length=  1.200000 / Angstrom  2.267671 / bohr
  Valence angle close to end in range of definition
 AN0001   : Angle=      179.7462   / Degree    3.137163 / rad

 *******************************************
 * Values of the constraints   / au or rad *
 *******************************************
   Label        C         C0
 Cns001      2.078699  2.078699
 Cns002      2.267671  2.267671
 Cns003      3.137163  3.141593

  27  -289.85716220  -289.85760778    -0.00044558  0.10137091  0.13498207  0.01787881  0.16977887  0.28204958  0.00494824    291.57

 Constraints section
ConstraintsConstraintsConstraintsConstraintsConstraintsConstraintsConstraintsConstraintsConstraintsConstraints
ConstraintsConstraintsConstraintsConstraintsConstraintsConstraintsConstraintsConstraintsConstraintsConstraints
Constraints                                                                                        Constraints
Constraints                                 C O N S T R A I N T S                                  Constraints
Constraints                                                                                        Constraints

************************************************************************************************************************
BO0001 = BOND       H10   C5
BO0002 = BOND       H10   C17
AN0001 = ANGLE      C5    H10   C17
VALUES
BO0001 =      1.10000000 ANGSTROM
BO0002 =      1.20000000 ANGSTROM
AN0001 =    180.00000000 DEGREE
************************************************************************************************************************


 *************************************************************
 * Values of the primitive constraints                       *
 *************************************************************
 BO0001   : Bond Length=  1.099999 / Angstrom  2.078696 / bohr
 BO0002   : Bond Length=  1.199999 / Angstrom  2.267670 / bohr
 AN0001   : Angle=      177.3269   / Degree    3.094938 / rad

 *******************************************
 * Values of the constraints   / au or rad *
 *******************************************
   Label        C         C0
 Cns001      2.078696  2.078699
 Cns002      2.267670  2.267671
 Cns003      3.094938  3.141593

  28  -289.85760778  -289.85744417     0.00016361  0.10046065  0.13309857  0.01762934  0.08937019  0.18380810  0.00322470    302.38

 Constraints section
ConstraintsConstraintsConstraintsConstraintsConstraintsConstraintsConstraintsConstraintsConstraintsConstraints
ConstraintsConstraintsConstraintsConstraintsConstraintsConstraintsConstraintsConstraintsConstraintsConstraints
Constraints                                                                                        Constraints
Constraints                                 C O N S T R A I N T S                                  Constraints
Constraints                                                                                        Constraints

************************************************************************************************************************
BO0001 = BOND       H10   C5
BO0002 = BOND       H10   C17
AN0001 = ANGLE      C5    H10   C17
VALUES
BO0001 =      1.10000000 ANGSTROM
BO0002 =      1.20000000 ANGSTROM
AN0001 =    180.00000000 DEGREE
************************************************************************************************************************


 *************************************************************
 * Values of the primitive constraints                       *
 *************************************************************
 BO0001   : Bond Length=  1.100000 / Angstrom  2.078698 / bohr
 BO0002   : Bond Length=  1.200000 / Angstrom  2.267671 / bohr
  Valence angle close to end in range of definition
 AN0001   : Angle=      179.9458   / Degree    3.140646 / rad

 *******************************************
 * Values of the constraints   / au or rad *
 *******************************************
   Label        C         C0
 Cns001      2.078698  2.078699
 Cns002      2.267671  2.267671
 Cns003      3.140646  3.141593

  29  -289.85744417  -289.85779104    -0.00034686  0.10034099  0.13231815  0.01752597  0.06332067  0.12535130  0.00219915    313.20

 Constraints section
ConstraintsConstraintsConstraintsConstraintsConstraintsConstraintsConstraintsConstraintsConstraintsConstraints
ConstraintsConstraintsConstraintsConstraintsConstraintsConstraintsConstraintsConstraintsConstraintsConstraints
Constraints                                                                                        Constraints
Constraints                                 C O N S T R A I N T S                                  Constraints
Constraints                                                                                        Constraints

************************************************************************************************************************
BO0001 = BOND       H10   C5
BO0002 = BOND       H10   C17
AN0001 = ANGLE      C5    H10   C17
VALUES
BO0001 =      1.10000000 ANGSTROM
BO0002 =      1.20000000 ANGSTROM
AN0001 =    180.00000000 DEGREE
************************************************************************************************************************


 *************************************************************
 * Values of the primitive constraints                       *
 *************************************************************
 BO0001   : Bond Length=  1.100000 / Angstrom  2.078698 / bohr
 BO0002   : Bond Length=  1.200000 / Angstrom  2.267671 / bohr
  Valence angle close to end in range of definition
 AN0001   : Angle=      177.5208   / Degree    3.098322 / rad

 *******************************************
 * Values of the constraints   / au or rad *
 *******************************************
   Label        C         C0
 Cns001      2.078698  2.078699
 Cns002      2.267671  2.267671
 Cns003      3.098322  3.141593

  30  -289.85779104  -289.85762259     0.00016845  0.10111740  0.13228275  0.01752128  0.04194202  0.12165726  0.00213434    323.43

 Constraints section
ConstraintsConstraintsConstraintsConstraintsConstraintsConstraintsConstraintsConstraintsConstraintsConstraints
ConstraintsConstraintsConstraintsConstraintsConstraintsConstraintsConstraintsConstraintsConstraintsConstraints
Constraints                                                                                        Constraints
Constraints                                 C O N S T R A I N T S                                  Constraints
Constraints                                                                                        Constraints

************************************************************************************************************************
BO0001 = BOND       H10   C5
BO0002 = BOND       H10   C17
AN0001 = ANGLE      C5    H10   C17
VALUES
BO0001 =      1.10000000 ANGSTROM
BO0002 =      1.20000000 ANGSTROM
AN0001 =    180.00000000 DEGREE
************************************************************************************************************************


 *************************************************************
 * Values of the primitive constraints                       *
 *************************************************************
 BO0001   : Bond Length=  1.100000 / Angstrom  2.078699 / bohr
 BO0002   : Bond Length=  1.200000 / Angstrom  2.267671 / bohr
  Valence angle close to end in range of definition
 AN0001   : Angle=      179.9982   / Degree    3.141561 / rad

 *******************************************
 * Values of the constraints   / au or rad *
 *******************************************
   Label        C         C0
 Cns001      2.078699  2.078699
 Cns002      2.267671  2.267671
 Cns003      3.141561  3.141593

  31  -289.85762259  -289.85767878    -0.00005619  0.10007122  0.13074631  0.01731777  0.04451911  0.09775220  0.00171495    333.71

 Constraints section
ConstraintsConstraintsConstraintsConstraintsConstraintsConstraintsConstraintsConstraintsConstraintsConstraints
ConstraintsConstraintsConstraintsConstraintsConstraintsConstraintsConstraintsConstraintsConstraintsConstraints
Constraints                                                                                        Constraints
Constraints                                 C O N S T R A I N T S                                  Constraints
Constraints                                                                                        Constraints

************************************************************************************************************************
BO0001 = BOND       H10   C5
BO0002 = BOND       H10   C17
AN0001 = ANGLE      C5    H10   C17
VALUES
BO0001 =      1.10000000 ANGSTROM
BO0002 =      1.20000000 ANGSTROM
AN0001 =    180.00000000 DEGREE
************************************************************************************************************************


 *************************************************************
 * Values of the primitive constraints                       *
 *************************************************************
 BO0001   : Bond Length=  1.100000 / Angstrom  2.078699 / bohr
 BO0002   : Bond Length=  1.200000 / Angstrom  2.267671 / bohr
  Valence angle close to end in range of definition
 AN0001   : Angle=      179.9800   / Degree    3.141244 / rad

 *******************************************
 * Values of the constraints   / au or rad *
 *******************************************
   Label        C         C0
 Cns001      2.078699  2.078699
 Cns002      2.267671  2.267671
 Cns003      3.141244  3.141593

[...]
   12      0.188D-05      0.284D-06      -290.21254783    839.627852    0.46658    0.24679    1.69287    9     31.6    421.6
   13      0.780D-06      0.134D-06      -290.21254784    839.627828    0.46657    0.24682    1.69280    9     30.1    451.7
   14      0.284D-06      0.689D-07      -290.21254784    839.627799    0.46658    0.24684    1.69279    9     28.2    479.9

 Final alpha occupancy:  28
 Final beta  occupancy:  27

 !UKS STATE  1.1 Energy              -290.212547838407
 Nuclear energy                       292.84472460
 One-electron energy                 -969.80425101
 Two-electron energy                  419.81389952
 Density functional                   -33.06692095     PBEX=-41.72905299 PBEC= -1.77013121
 Virial quotient                       -1.00446846
 !UKS STATE  1.1 Dipole moment          0.46657632     0.24683984     1.69278892
 Dipole moment /Debye                   1.18584104     0.62736321     4.30235847

 Orbital energies for positive spin:

         1.1          2.1          3.1          4.1          5.1          6.1          7.1          8.1          9.1         10.1
    -14.381543   -10.259356   -10.256004   -10.255184   -10.232105   -10.225393   -10.223221    -0.926989    -0.872740    -0.788053

        11.1         12.1         13.1         14.1         15.1         16.1         17.1         18.1         19.1         20.1
     -0.753306    -0.665228    -0.628977    -0.555193    -0.503430    -0.493517    -0.452767    -0.442313    -0.424663    -0.400962

        21.1         22.1         23.1         24.1         25.1         26.1         27.1         28.1         29.1         30.1
     -0.394307    -0.382334    -0.367238    -0.357587    -0.354075    -0.352166    -0.347249    -0.262992     0.019527     0.024349

 Orbital energies for negative spin:

         1.1          2.1          3.1          4.1          5.1          6.1          7.1          8.1          9.1         10.1
    -14.381090   -10.255250   -10.248665   -10.243514   -10.231982   -10.225285   -10.223230    -0.917216    -0.863389    -0.777039

        11.1         12.1         13.1         14.1         15.1         16.1         17.1         18.1         19.1         20.1
     -0.740504    -0.662050    -0.612640    -0.531987    -0.498124    -0.489601    -0.449656    -0.441086    -0.421669    -0.394080

        21.1         22.1         23.1         24.1         25.1         26.1         27.1         28.1         29.1         30.1
     -0.386495    -0.377242    -0.362960    -0.353823    -0.351847    -0.346865    -0.339952    -0.121090     0.028557     0.035827


 HOMO     28.1    -0.262992 =      -7.1564eV
 LUMO    -28.1    -0.121090 =      -3.2950eV
 LUMO-HOMO         0.141902 =       3.8614eV

 EXPECTATION VALUE OF S**2:             0.76146935

 Occupation number threshold for pseudo-canonical orbitals: 1.9990 (occupied), 0.0010 (virtual)

 Number of pseudo-canonical occupied orbitals per symmetry:   25
 Number of active natural orbitals per symmetry:               5

 Natural orbitals saved to record    2204.2 (Orbital set 3)

 Orbital spaces for UNO-CAS (Min. occupation: 0.020  Max. occupation: 1.980):

 Closed:       27
 Active:        1


 **********************************************************************************************************************************
 DATASETS  * FILE   NREC   LENGTH (MB)   RECORD NAMES
              1      19       35.44       500      610      700      900      950      970     1001      129      960     1100   
                                          VAR    BASINP    GEOM    SYMINP    ZMAT    AOBASIS   BASIS     P2S    ABASIS      S 
                                         1400     1410     1200     1210     1080     1600     1650     1700     1800   
                                           T        V       H0       H01     AOSYM     SMH    MOLCAS    OPER     GRID   

              2      13       28.07       700     1000      520     2100     1800     2200      520(1)  2201      520(2)  2202   
                                         GEOM     BASIS   MCVARS     RHF     GRID      UKS    MCVARS     UKS    MCVARS     UKS  
                                         1001     2203     2204   
                                         BASIS     UKS      UKS  

 PROGRAMS   *        TOTAL    DF-UKS    DF-UKS       INT    DF-UKS      OPTG    DF-UKS      OPTG    DF-UKS     DF-HF       INT
 CPU TIMES  *      5172.02    480.00     15.47      0.24      7.87   4038.40     83.97    527.26      8.79      9.57      0.31
 REAL TIME  *      5200.72 SEC
 DISK USED  *        89.67 MB
 **********************************************************************************************************************************

 Density functional group PBE0=PBEX+PBEC
 Functional: PBEX(Automatically generated (new) PBEX)                          Gradient terms: 1
 Functional: PBEC(Automatically generated (new) PBEC)                          Gradient terms: 1
 Use libxcgrid:  F
 Use grid at  1800.2


 Exact exchange will be calculated, factor:  0.2500

 Functional: PBEX                      Factor:  0.7500
 Functional: PBEC                      Factor:  1.0000

  234265 words reserved for DFT integration

 PROGRAM * UKS-SCF (Unrestricted Kohn-Sham)     Authors: W. Meyer, H.-J. Werner, P.J. Knowles, 1993

 NUMBER OF ELECTRONS:      28+   27-    SPACE SYMMETRY=1    SPIN SYMMETRY: Doublet 
 CONVERGENCE THRESHOLDS:    1.00E-06 (Density)    1.00E-06 (Energy)
 INTEGRAL THRESHOLDS:       1.00E-11 (Initial)    1.00E-11 (Final)
 MAX. NUMBER OF ITERATIONS:       60
 INTERPOLATION TYPE:            DIIS
 INTERPOLATION STEPS:              2 (START)      1 (STEP)
 LEVEL SHIFTS:                 -0.20 (ALPHA)  -0.20 (BETA) 



 Use fine grid record 1800.2 for energy threshold  1.0D-06
 Molecular orbitals read from record     2204.2  Type=UKS/ALPHA (state 1.1)
 Molecular orbitals read from record     2204.2  Type=UKS/BETA (state 1.1)

 Molecular orbital dump at record        2205.2

 Initial alpha occupation  28
 Initial beta  occupation  27

 Direct Fock-matrix evaluation.        Author: H.-J. Werner (1996)

 Integral Threshold:                  0.1D-10

 ITERATION   DDIFF            GRAD            ENERGY        2-EL.EN.            DIPOLE MOMENTS         DIIS   CPU(IT)  CPU(TOT)
    1      0.000D+00      0.000D+00      -290.21231086    839.628273    0.46658    0.24684    1.69279    0     40.1     40.1
    2      0.357D-04      0.741D-05      -290.21231211    839.624869    0.46653    0.24687    1.69281    1     37.8     77.9
    3      0.117D-04      0.124D-05      -290.21231217    839.625780    0.46648    0.24688    1.69277    2     37.1    115.0
    4      0.465D-05      0.230D-06      -290.21231218    839.625553    0.46646    0.24689    1.69276    3     35.7    150.6
    5      0.119D-05      0.796D-07      -290.21231218    839.625889    0.46644    0.24686    1.69275    4     34.8    185.4
    6      0.312D-06      0.457D-07      -290.21231218    839.625816    0.46645    0.24688    1.69276    5     33.2    218.6
    7      0.727D-07      0.263D-07      -290.21231218    839.625792    0.46644    0.24687    1.69275    6     31.2    249.8

 Final alpha occupancy:  28
 Final beta  occupancy:  27

 !UKS STATE  1.1 Energy              -290.212312179838
 Nuclear energy                       292.84472460
 One-electron energy                 -969.80328069
 Two-electron energy                  419.81289618
 Density functional                   -33.06665227     PBEX=-41.72863884 PBEC= -1.77017314
 Virial quotient                       -1.00448130
 !UKS STATE  1.1 Dipole moment          0.46644160     0.24687134     1.69274841
 Dipole moment /Debye                   1.18549864     0.62744327     4.30225551

 Orbital energies for positive spin:

         1.1          2.1          3.1          4.1          5.1          6.1          7.1          8.1          9.1         10.1
    -14.381572   -10.259398   -10.256069   -10.255209   -10.232137   -10.225440   -10.223270    -0.926984    -0.872746    -0.788061

        11.1         12.1         13.1         14.1         15.1         16.1         17.1         18.1         19.1         20.1
     -0.753312    -0.665232    -0.628980    -0.555196    -0.503435    -0.493521    -0.452774    -0.442317    -0.424675    -0.400950

        21.1         22.1         23.1         24.1         25.1         26.1         27.1         28.1         29.1         30.1
     -0.394311    -0.382331    -0.367242    -0.357594    -0.354080    -0.352175    -0.347250    -0.263001     0.019483     0.024325

 Orbital energies for negative spin:

         1.1          2.1          3.1          4.1          5.1          6.1          7.1          8.1          9.1         10.1
    -14.381120   -10.255274   -10.248707   -10.243579   -10.232013   -10.225332   -10.223280    -0.917209    -0.863395    -0.777048

        11.1         12.1         13.1         14.1         15.1         16.1         17.1         18.1         19.1         20.1
     -0.740511    -0.662053    -0.612643    -0.531993    -0.498129    -0.489605    -0.449662    -0.441089    -0.421681    -0.394084

        21.1         22.1         23.1         24.1         25.1         26.1         27.1         28.1         29.1         30.1
     -0.386482    -0.377232    -0.362963    -0.353829    -0.351849    -0.346877    -0.339959    -0.121103     0.028504     0.035784


 HOMO     28.1    -0.263001 =      -7.1566eV
 LUMO    -28.1    -0.121103 =      -3.2954eV
 LUMO-HOMO         0.141897 =       3.8612eV

 EXPECTATION VALUE OF S**2:             0.76146979

 Occupation number threshold for pseudo-canonical orbitals: 1.9990 (occupied), 0.0010 (virtual)

 Number of pseudo-canonical occupied orbitals per symmetry:   25
 Number of active natural orbitals per symmetry:               5

 Natural orbitals saved to record    2205.2 (Orbital set 3)

 Orbital spaces for UNO-CAS (Min. occupation: 0.020  Max. occupation: 1.980):

 Closed:       27
 Active:        1


 **********************************************************************************************************************************
 DATASETS  * FILE   NREC   LENGTH (MB)   RECORD NAMES
              1      19       35.44       500      610      700      900      950      970     1001      129      960     1100   
                                          VAR    BASINP    GEOM    SYMINP    ZMAT    AOBASIS   BASIS     P2S    ABASIS      S 
                                         1400     1410     1200     1210     1080     1600     1650     1700     1800   
                                           T        V       H0       H01     AOSYM     SMH    MOLCAS    OPER     GRID   

              2      14       33.93       700     1000      520     2100     1800     2200      520(1)  2201      520(2)  2202   
                                         GEOM     BASIS   MCVARS     RHF     GRID      UKS    MCVARS     UKS    MCVARS     UKS  
                                         1001     2203     2204     2205   
                                         BASIS     UKS      UKS      UKS  

 PROGRAMS   *        TOTAL   UKS-SCF    DF-UKS    DF-UKS       INT    DF-UKS      OPTG    DF-UKS      OPTG    DF-UKS     DF-HF
 CPU TIMES  *      5421.84    249.82    480.00     15.47      0.24      7.87   4038.40     83.97    527.26      8.79      9.57
 REAL TIME  *      5450.59 SEC
 DISK USED  *        91.27 MB
 **********************************************************************************************************************************

 Density functional group B3LYP=B88+DIRAC+LYP+VWN5
 Functional: B88(Automatically generated (new) B88)                            Gradient terms: 1
 Functional: DIRAC(Automatically generated (new) DIRAC)                        Gradient terms: 0
 Functional: LYP(Automatically generated (new) LYP)                            Gradient terms: 1
 Functional: VWN5(Automatically generated (new) VWN5)                          Gradient terms: 0
 Use libxcgrid:  F
 Use grid at  1800.2


 Exact exchange will be calculated, factor:  0.2000

 Functional: B88                       Factor:  0.7200
 Functional: DIRAC                     Factor:  0.0800
 Functional: LYP                       Factor:  0.8100
 Functional: VWN5                      Factor:  0.1900

  234265 words reserved for DFT integration

 PROGRAM * UKS-SCF (Unrestricted Kohn-Sham)     Authors: W. Meyer, H.-J. Werner, P.J. Knowles, 1993

 NUMBER OF ELECTRONS:      28+   27-    SPACE SYMMETRY=1    SPIN SYMMETRY: Doublet 
 CONVERGENCE THRESHOLDS:    1.00E-06 (Density)    1.00E-06 (Energy)
 INTEGRAL THRESHOLDS:       1.00E-11 (Initial)    1.00E-11 (Final)
 MAX. NUMBER OF ITERATIONS:       60
 INTERPOLATION TYPE:            DIIS
 INTERPOLATION STEPS:              2 (START)      1 (STEP)
 LEVEL SHIFTS:                 -0.20 (ALPHA)  -0.20 (BETA) 



 Use fine grid record 1800.2 for energy threshold  1.0D-06
 Molecular orbitals read from record     2205.2  Type=UKS/ALPHA (state 1.1)
 Molecular orbitals read from record     2205.2  Type=UKS/BETA (state 1.1)

 Molecular orbital dump at record        2206.2

 Initial alpha occupation  28
 Initial beta  occupation  27

 Direct Fock-matrix evaluation.        Author: H.-J. Werner (1996)

 Integral Threshold:                  0.1D-10

 ITERATION   DDIFF            GRAD            ENERGY        2-EL.EN.            DIPOLE MOMENTS         DIIS   CPU(IT)  CPU(TOT)
    1      0.000D+00      0.000D+00      -290.38130140    843.814465    0.46644    0.24687    1.69275    0     40.0     40.0
    2      0.120D-02      0.394D-03      -290.38537670    844.174491    0.46974    0.25070    1.70145    1     38.9     79.0
    3      0.201D-03      0.620D-04      -290.38556845    843.845251    0.46265    0.23954    1.68667    2     37.5    116.4
    4      0.963D-04      0.301D-04      -290.38559896    843.864543    0.46869    0.25044    1.69703    3     37.5    153.9
    5      0.397D-04      0.156D-04      -290.38560804    843.884667    0.46481    0.24248    1.69128    4     36.8    190.7
    6      0.283D-04      0.800D-05      -290.38561142    843.860497    0.46574    0.24374    1.69329    5     36.2    226.9
    7      0.133D-04      0.252D-05      -290.38561262    843.865292    0.46587    0.24374    1.69402    6     35.9    262.8
    8      0.731D-05      0.192D-05      -290.38561339    843.862306    0.46574    0.24299    1.69438    7     35.5    298.4
    9      0.413D-05      0.979D-06      -290.38561375    843.862690    0.46565    0.24261    1.69456    8     35.0    333.4
   10      0.161D-05      0.452D-06      -290.38561381    843.862679    0.46564    0.24252    1.69472    8     33.9    367.3
   11      0.131D-05      0.202D-06      -290.38561382    843.862689    0.46563    0.24250    1.69470    9     33.7    401.0
   12      0.660D-06      0.807D-07      -290.38561382    843.862648    0.46563    0.24250    1.69467    9     32.5    433.5
   13      0.188D-06      0.318D-07      -290.38561382    843.862652    0.46563    0.24251    1.69467    9     31.6    465.0

 Final alpha occupancy:  28
 Final beta  occupancy:  27

 !UKS STATE  1.1 Energy              -290.385613821014
 Nuclear energy                       292.84472460
 One-electron energy                 -969.80574487
 Two-electron energy                  421.93132605
 Density functional                   -35.35591961     B88=-41.99845945 DIRAC=-37.77530741 LYP= -1.77699647 VWN5= -3.45072142
 Virial quotient                       -1.00400560
 !UKS STATE  1.1 Dipole moment          0.46563001     0.24250520     1.69467420
 Dipole moment /Debye                   1.18343592     0.61634637     4.30715004

 Orbital energies for positive spin:

         1.1          2.1          3.1          4.1          5.1          6.1          7.1          8.1          9.1         10.1
    -14.313670   -10.205575   -10.202568   -10.200609   -10.178841   -10.173348   -10.171234    -0.900943    -0.847033    -0.764729

        11.1         12.1         13.1         14.1         15.1         16.1         17.1         18.1         19.1         20.1
     -0.730991    -0.645367    -0.610321    -0.538290    -0.488323    -0.478867    -0.438725    -0.429126    -0.412382    -0.386524

        21.1         22.1         23.1         24.1         25.1         26.1         27.1         28.1         29.1         30.1
     -0.382411    -0.370857    -0.355935    -0.346569    -0.342962    -0.339288    -0.335541    -0.251131     0.012508     0.016971

 Orbital energies for negative spin:

         1.1          2.1          3.1          4.1          5.1          6.1          7.1          8.1          9.1         10.1
    -14.312877   -10.200609   -10.195671   -10.191008   -10.178728   -10.173249   -10.171240    -0.891395    -0.838287    -0.754364

        11.1         12.1         13.1         14.1         15.1         16.1         17.1         18.1         19.1         20.1
     -0.719616    -0.642377    -0.595459    -0.517639    -0.483527    -0.475191    -0.435955    -0.428065    -0.409623    -0.382588

        21.1         22.1         23.1         24.1         25.1         26.1         27.1         28.1         29.1         30.1
     -0.374165    -0.365090    -0.351925    -0.343692    -0.340924    -0.333823    -0.328013    -0.130521     0.019280     0.026961


 HOMO     28.1    -0.251131 =      -6.8336eV
 LUMO    -28.1    -0.130521 =      -3.5516eV
 LUMO-HOMO         0.120611 =       3.2820eV

 EXPECTATION VALUE OF S**2:             0.75864448

 Occupation number threshold for pseudo-canonical orbitals: 1.9990 (occupied), 0.0010 (virtual)

 Number of pseudo-canonical occupied orbitals per symmetry:   25
 Number of active natural orbitals per symmetry:               5

 Natural orbitals saved to record    2206.2 (Orbital set 3)

 Orbital spaces for UNO-CAS (Min. occupation: 0.020  Max. occupation: 1.980):

 Closed:       27
 Active:        1


 **********************************************************************************************************************************
 DATASETS  * FILE   NREC   LENGTH (MB)   RECORD NAMES
              1      19       35.44       500      610      700      900      950      970     1001      129      960     1100   
                                          VAR    BASINP    GEOM    SYMINP    ZMAT    AOBASIS   BASIS     P2S    ABASIS      S 
                                         1400     1410     1200     1210     1080     1600     1650     1700     1800   
                                           T        V       H0       H01     AOSYM     SMH    MOLCAS    OPER     GRID   

              2      15       39.78       700     1000      520     2100     1800     2200      520(1)  2201      520(2)  2202   
                                         GEOM     BASIS   MCVARS     RHF     GRID      UKS    MCVARS     UKS    MCVARS     UKS  
                                         1001     2203     2204     2205     2206   
                                         BASIS     UKS      UKS      UKS      UKS  

 PROGRAMS   *        TOTAL   UKS-SCF   UKS-SCF    DF-UKS    DF-UKS       INT    DF-UKS      OPTG    DF-UKS      OPTG    DF-UKS
 CPU TIMES  *      5886.96    465.11    249.82    480.00     15.47      0.24      7.87   4038.40     83.97    527.26      8.79
 REAL TIME  *      5916.84 SEC
 DISK USED  *        99.81 MB
 **********************************************************************************************************************************

 UB3LYP/TZVP//CF-UKS/SVP energy=   -290.385613821014

         UKS-SCF         UKS-SCF          DF-UKS          DF-UKS          DF-UKS    OPTG(DF-UKS)          DF-UKS    OPTG(DF-UKS)
   -290.38561382   -290.21231218   -290.21254784   -290.17852222   -289.85636320   -289.89740932   -289.89581286   -289.85776019
 **********************************************************************************************************************************
 Molpro calculation terminated with 2 warning(s)
