
 Primary working directories    : /mnt/storage/home/lb17101/scratch/1377542/molpro.QgdqI5qjMP
 Secondary working directories  : /mnt/storage/home/lb17101/scratch/1377542/molpro.QgdqI5qjMP
 Wavefunction directory         : /mnt/storage/home/lb17101/optimizations/10/
 Main file repository           : /mnt/storage/home/lb17101/optimizations/10/

 id        : simonbennie

 Nodes                   nprocs
 compute075.bc4.acrc.priv    1

 Using customized tuning parameters: mindgm=1; mindgv=20; mindgc=4; mindgr=1; noblas=0; minvec=7
 default implementation of scratch files=df  


 Variables initialized (924), CPU time= 0.01 sec
 memory,536,m
 
 geomtyp=xyz
 
 nosym
 noorient
 gdirect
 angstrom
 
 geometry=input.xyz
 Including file /mnt/storage/home/lb17101/optimizations/10/input.xyz
 
 set,charge=0
 
 basis=svp
 df-hf
 {cf-uks,pbe;}
 {optg,method=slrf,maxiter=50;
 constraint,1.100,angstrom,bond,atoms=[H10,C5]
 constraint,1.000,angstrom,bond,atoms=[H10,C17]
 constraint,180,deg,angle,atoms=[C5,H10,C17]
 {slopt;}}
 {cf-uks,pbe0;}
 {optg,method=slrf,maxiter=50;
 constraint,1.100,angstrom,bond,atoms=[H10,C5]
 constraint,1.000,angstrom,bond,atoms=[H10,C17]
 constraint,180,deg,angle,atoms=[C5,H10,C17]
 {slopt;}}
 {cf-uks,pbe;}
 basis=tzvp
 {cf-uks,pbe;}
 {cf-uks,pbe0;}
 {uks,pbe0;}
 {uks,b3lyp;}
 Commands  initialized (760), CPU time= 0.01 sec, 616 directives.
 Default parameters read. Elapsed time= 0.04 sec

 Checking input...
 Passed
1


                                         ***  PROGRAM SYSTEM MOLPRO  ***
                                       Copyright, TTI GmbH Stuttgart, 2015
                                    Version 2018.1 linked Oct 16 2018 14:32:03


 **********************************************************************************************************************************
 LABEL *                                                                                 
  64 bit serial version                                                                  DATE: 09-Nov-18          TIME: 13:17:26  
 **********************************************************************************************************************************

 SHA1:             d673ad554fd0a1ae99daa449513f8b88cca0f763
 **********************************************************************************************************************************
 SETTING GEOMTYP        =    XYZ

 Variable memory set to  536000000 words,  buffer space 

 ZSYMEL=NOSYM
 ZUNIT=ANG

 SETTING CHARGE         =     0.00000000D+00                                  
 SETTING BASIS          =    SVP


 Recomputing integrals since basis changed


 Using spherical harmonics

 Library entry C      S def2-SVP             selected for orbital group  1
 Library entry C      P def2-SVP             selected for orbital group  1
 Library entry C      D def2-SVP             selected for orbital group  1
 Library entry H      S def2-SVP             selected for orbital group  2
 Library entry H      P def2-SVP             selected for orbital group  2
 Library entry N      S def2-SVP             selected for orbital group  8
 Library entry N      P def2-SVP             selected for orbital group  8
 Library entry N      D def2-SVP             selected for orbital group  8


 PROGRAM * SEWARD (Integral evaluation for generally contracted gaussian basis sets)     Author: Roland Lindh, 1990

 Geometry written to block  1 of record 700


 Point group  C1  



 ATOMIC COORDINATES

 NR  ATOM    CHARGE       X              Y              Z

   1  C0      6.00  -15.641370747    4.440507963   -0.049754099
   2  C1      6.00  -12.737339891    4.465637486   -0.140167375
   3  H2      1.00  -16.452984854    4.362009759   -1.983315422
   4  H3      1.00  -16.391562141    6.159377510    0.885856613
   5  H4      1.00  -16.350492719    2.775164051    1.006098957
   6  C5      6.00  -11.740713253    6.806784179   -1.363174032
   7  C6      6.00  -11.691868632    2.010595906   -1.332047513
   8  H7      1.00  -12.059131143    4.477675291    1.873635711
   9  H8      1.00  -12.816334048    8.587533046   -1.256908787
  10  H9      1.00   -9.762548968    6.938438663   -1.991254644
  11  H10     1.00  -12.760792883    6.054981588   -6.888684292
  12  H11     1.00  -12.328168648    1.913494793   -3.335824861
  13  H12     1.00  -12.605734446    0.383795421   -0.365812386
  14  C13     6.00   -8.821789553    1.708632436   -1.189530685
  15  H14     1.00   -7.807109511    3.177308591   -2.288390688
  16  H15     1.00   -8.219027992   -0.147593098   -1.950649422
  17  H16     1.00   -8.140726956    1.825765183    0.791880384
  18  C17     6.00  -12.982218668    5.632782742   -8.912040694
  19  N18     7.00  -13.226364779    5.162744798  -11.053985496

 Bond lengths in Bohr (Angstrom)

 1-2  2.905546638  1-3  2.098461058  1-4  2.095869044  1-5  2.095483235  2-6  2.823114907
     ( 1.537549066)     ( 1.110457770)     ( 1.109086135)     ( 1.108881974)     ( 1.493928072)

  2- 7  2.922467721   2- 8  2.124974090   6- 9  2.083103196   6-10  2.079651918   7-12  2.104621106
       ( 1.546503317)       ( 1.124487862)       ( 1.102330739)       ( 1.100504402)       ( 1.113717527)

  7-13  2.101247455   7-14  2.889437125  11-18  2.078762221  14-15  2.096205750  14-16  2.094802249
       ( 1.111932268)       ( 1.529024279)       ( 1.100033595)       ( 1.109264312)       ( 1.108521612)

 14-17  2.098465193  18-19  2.206461087
       ( 1.110459958)       ( 1.167608924)

 Bond angles

  1-2-6  111.93115943   1-2-7  111.28297678   1-2-8  106.83125183   2-1-3  110.99066727

  2- 1- 4  111.37985148   2- 1- 5  111.14817415   2- 6- 9  120.29991886   2- 6-10  121.27389130

  2- 7-12  108.59604258   2- 7-13  107.89393921   2- 7-14  115.02504750   3- 1- 4  107.67204096

  3-1-5  107.67777862   4-1-5  107.80128520   6-2-7  113.18328669   6-2-8  107.04834525

  7- 2- 8  106.08604597   7-14-15  112.44125475   7-14-16  111.13069525   7-14-17  111.29175153

  9- 6-10  116.90071828  11-18-19  179.36634029  12- 7-13  105.69971320  12- 7-14  110.02606719

 13- 7-14  109.17241960  15-14-16  106.92329474  15-14-17  107.38331531  16-14-17  107.40616309

 NUCLEAR CHARGE:                   55
 NUMBER OF PRIMITIVE AOS:         259
 NUMBER OF SYMMETRY AOS:          252
 NUMBER OF CONTRACTIONS:          158   (  158A   )
 NUMBER OF CORE ORBITALS:           7   (    7A   )
 NUMBER OF VALENCE ORBITALS:       40   (   40A   )


 NUCLEAR REPULSION ENERGY  265.52795116


 Eigenvalues of metric

         1 0.183E-02 0.359E-02 0.451E-02 0.603E-02 0.838E-02 0.182E-01 0.195E-01 0.203E-01


 OPERATOR DM      FOR CENTER  0  COORDINATES:    0.000000    0.000000    0.000000


 **********************************************************************************************************************************
 DATASETS  * FILE   NREC   LENGTH (MB)   RECORD NAMES
              1      18       31.21       500      610      700      900      950      970     1000      129      960     1100   
                                          VAR    BASINP    GEOM    SYMINP    ZMAT    AOBASIS   BASIS     P2S    ABASIS      S 
                                         1400     1410     1200     1210     1080     1600     1650     1700   
                                           T        V       H0       H01     AOSYM     SMH    MOLCAS    OPER   

 PROGRAMS   *        TOTAL       INT
 CPU TIMES  *         0.43      0.31
 REAL TIME  *         1.10 SEC
 DISK USED  *        31.83 MB
 **********************************************************************************************************************************


 PROGRAM * RHF-SCF (OPEN SHELL)       Authors: W. Meyer, H.-J. Werner


 NUMBER OF ELECTRONS:      28+   27-    SPACE SYMMETRY=1    SPIN SYMMETRY: Doublet 
 CONVERGENCE THRESHOLDS:    1.00E-06 (Density)    1.00E-07 (Energy)
 INTEGRAL THRESHOLDS:       1.00E-11 (Initial)    1.00E-11 (Final)
 MAX. NUMBER OF ITERATIONS:       60
 INTERPOLATION TYPE:            DIIS
 INTERPOLATION STEPS:              2 (START)      1 (STEP)
 LEVEL SHIFTS:                 -0.60 (CLOSED) -0.30 (OPEN) 




 Basis set DEF2-SVP/JKFIT generated.     Number of basis functions:   560 

 Orbital guess generated from atomic densities. Full valence occupancy:   28
 Using density fitting in orbital guess

 Coulomb and exchange fitting
 Thresholds for fitting:       THRAO_COUL= 1.0D-14    THRAO_EXCH= 1.0D-12    THRMO= 1.0D-11    THRPROD= 1.0D-11    THRASM= 1.0D-11
                               THR2HLF=    1.0D-11

 Molecular orbital dump at record        2100.2

 Initial alpha occupancy:  28
 Initial beta  occupancy:  27
 Wave function symmetry:    1

 ITERATION   DDIFF            GRAD            ENERGY        2-EL.EN.            DIPOLE MOMENTS         DIIS   CPU(IT)  CPU(TOT)  ORB.
    1      0.000D+00      0.000D+00      -288.25645383    722.794989    0.18962    0.18373    2.07818    0      0.7      1.5     start
    2      0.000D+00      0.401D-02      -288.33272397    720.251142    0.15608    0.11928    1.55248    1      0.7      2.2     diag,B
    3      0.299D-02      0.157D-02      -288.34776947    720.373121    0.17027    0.15909    1.58025    2      0.7      2.9     diag,B
    4      0.149D-02      0.746D-03      -288.35372036    720.335213    0.17121    0.16652    1.51448    3      0.7      3.6     diag,B
    5      0.126D-02      0.205D-03      -288.35432294    720.307194    0.17304    0.17513    1.50618    4      0.7      4.2     diag,B
    6      0.483D-03      0.732D-04      -288.35441618    720.278524    0.17353    0.17879    1.50188    5      0.7      4.9     diag,B
    7      0.216D-03      0.221D-04      -288.35442487    720.270865    0.17353    0.17940    1.50022    6      0.7      5.6     fixocc
    8      0.691D-04      0.674D-05      -288.35442573    720.270536    0.17343    0.17928    1.49946    7      0.7      6.2     diag,B
    9      0.255D-04      0.221D-05      -288.35442585    720.270735    0.17338    0.17914    1.49927    8      0.7      6.9     diag,B
   10      0.952D-05      0.690D-06      -288.35442586    720.270891    0.17336    0.17910    1.49924    9      0.7      7.6     orth
   11      0.274D-05      0.291D-06      -288.35442586    720.270887    0.17335    0.17908    1.49924    9      0.7      8.2     diag,B
   12      0.139D-05      0.107D-06      -288.35442586    720.270874    0.17335    0.17908    1.49923    9      0.7      8.9     diag,B
   13      0.568D-06      0.380D-07      -288.35442586    720.270869    0.17335    0.17908    1.49923    0      0.7      9.6     orth

 Final alpha occupancy:  28
 Final beta  occupancy:  27

 !RHF STATE  1.1 Energy              -288.354425860902
 Nuclear energy                       265.52795116
 One-electron energy                 -914.01781158
 Two-electron energy                  360.13543455
 Virial quotient                       -1.00689725
 !RHF STATE  1.1 Dipole moment          0.17334716     0.17907993     1.49923217
 Dipole moment /Debye                   0.44057568     0.45514596     3.81041850

 Orbital energies:

         1.1          2.1          3.1          4.1          5.1          6.1          7.1          8.1          9.1         10.1
    -15.598977   -11.299413   -11.247726   -11.243403   -11.239307   -11.236487   -11.234455    -1.211737    -1.090196    -0.989546

        11.1         12.1         13.1         14.1         15.1         16.1         17.1         18.1         19.1         20.1
     -0.906750    -0.849458    -0.786725    -0.753575    -0.640503    -0.627685    -0.590293    -0.578661    -0.571756    -0.553396

        21.1         22.1         23.1         24.1         25.1         26.1         27.1         28.1         29.1         30.1
     -0.523029    -0.509800    -0.487434    -0.487111    -0.484821    -0.476290    -0.468021    -0.373833     0.152209     0.172455


 HOMO     28.1    -0.373833 =     -10.1725eV
 LUMO     29.1     0.152209 =       4.1418eV
 LUMO-HOMO         0.526042 =      14.3143eV


 **********************************************************************************************************************************
 DATASETS  * FILE   NREC   LENGTH (MB)   RECORD NAMES
              1      18       31.21       500      610      700      900      950      970     1000      129      960     1100   
                                          VAR    BASINP    GEOM    SYMINP    ZMAT    AOBASIS   BASIS     P2S    ABASIS      S 
                                         1400     1410     1200     1210     1080     1600     1650     1700   
                                           T        V       H0       H01     AOSYM     SMH    MOLCAS    OPER   

              2       4        3.88       700     1000      520     2100   
                                         GEOM     BASIS   MCVARS     RHF  

 PROGRAMS   *        TOTAL     DF-HF       INT
 CPU TIMES  *        10.01      9.58      0.31
 REAL TIME  *        12.23 SEC
 DISK USED  *        68.27 MB
 **********************************************************************************************************************************

 Density functional group PBE=PBEX+PBEC
 Functional: PBEX(Automatically generated (new) PBEX)                          Gradient terms: 1
 Functional: PBEC(Automatically generated (new) PBEC)                          Gradient terms: 1
 Use libxcgrid:  F
 Use grid at  1800.2

 Functional: PBEX                      Factor:  1.0000
 Functional: PBEC                      Factor:  1.0000

 Generated new metagrid on record  1800.2 with target accuracy 1.0D-06 and 64116 points in CPU time    1.2
 Computed new grid on record 1800.1 in CPU time    1.4
  129907 words reserved for DFT integration

 PROGRAM * UKS-SCF (Unrestricted Kohn-Sham)     Authors: W. Meyer, H.-J. Werner, P.J. Knowles, 1993

 NUMBER OF ELECTRONS:      28+   27-    SPACE SYMMETRY=1    SPIN SYMMETRY: Doublet 
 CONVERGENCE THRESHOLDS:    1.00E-06 (Density)    1.00E-06 (Energy)
 INTEGRAL THRESHOLDS:       1.00E-11 (Initial)    1.00E-11 (Final)
 MAX. NUMBER OF ITERATIONS:       60
 INTERPOLATION TYPE:            DIIS
 INTERPOLATION STEPS:              2 (START)      1 (STEP)
 LEVEL SHIFTS:                 -0.20 (ALPHA)  -0.20 (BETA) 



 Use fine grid record 1800.2 for energy threshold  1.0D-06

 Basis set DEF2-SVP/JFIT generated.      Number of basis functions:   475 
 Coulomb fitting
 Screening thresholds:    THRAO_COUL= 1.0D-14    THRAO= 1.0D-12    THROV= 1.0D-12

 Reserved 6 MW to cache 100.0% of significant integrals. CPU: 0.3 sec

 Molecular orbitals read from record     2100.2  Type=RHF/CANONICAL (state 1.1)

 Molecular orbital dump at record        2200.2

 Initial alpha occupation  28
 Initial beta  occupation  27

 ITERATION    DDIFF          GRAD             ENERGY        2-EL.EN.            DIPOLE MOMENTS         DIIS  CPU(IT) CPU(TOT)
    1      0.000D+00      0.000D+00      -289.85713932    803.747086    0.17335    0.17908    1.49923    0      0.6      0.8
    2      0.411D-02      0.217D-02      -289.89796926    806.756483    0.15414    0.12370    1.39917    1      0.5      1.4
    3      0.133D-02      0.435D-03      -289.90136315    805.382566    0.15121    0.11352    1.38265    2      0.5      1.9
    4      0.689D-03      0.179D-03      -289.90220015    805.890412    0.14684    0.09623    1.36471    3      0.6      2.5
    5      0.274D-03      0.759D-04      -289.90230653    805.825909    0.15160    0.10183    1.40752    4      0.5      3.0
    6      0.124D-03      0.794D-04      -289.90238831    805.763459    0.14856    0.09378    1.38210    5      0.6      3.6
    7      0.752D-04      0.200D-04      -289.90240258    805.776039    0.14924    0.09393    1.38971    6      0.5      4.1
    8      0.278D-04      0.770D-05      -289.90240492    805.777096    0.14922    0.09268    1.39049    7      0.6      4.7
    9      0.116D-04      0.258D-05      -289.90240522    805.777810    0.14932    0.09290    1.39089    8      0.6      5.2
   10      0.447D-05      0.118D-05      -289.90240526    805.776928    0.14932    0.09277    1.39116    8      0.6      5.8
   11      0.126D-05      0.265D-06      -289.90240527    805.776994    0.14932    0.09275    1.39119    8      0.5      6.3
   12      0.302D-06      0.116D-06      -289.90240527    805.777045    0.14932    0.09277    1.39118    8      0.5      6.9
   13      0.159D-06      0.578D-07      -289.90240527    805.777001    0.14932    0.09277    1.39119    7      0.5      7.4

 Final alpha occupancy:  28
 Final beta  occupancy:  27

 !UKS STATE  1.1 Energy              -289.902405266375
 Nuclear energy                       265.52795116
 One-electron energy                 -915.05336432
 Two-electron energy                  402.88850031
 Density functional                   -43.26549242     PBEX=-41.50794834 PBEC= -1.75754408
 Virial quotient                       -1.01207402
 !UKS STATE  1.1 Dipole moment          0.14932416     0.09276881     1.39118584
 Dipole moment /Debye                   0.37951930     0.23577934     3.53581010

 Orbital energies for positive spin:

         1.1          2.1          3.1          4.1          5.1          6.1          7.1          8.1          9.1         10.1
    -14.009341    -9.946098    -9.919312    -9.918534    -9.906280    -9.900443    -9.898445    -0.818899    -0.741910    -0.664369

        11.1         12.1         13.1         14.1         15.1         16.1         17.1         18.1         19.1         20.1
     -0.611917    -0.562408    -0.528967    -0.499305    -0.424594    -0.414627    -0.386898    -0.374491    -0.354350    -0.330846

        21.1         22.1         23.1         24.1         25.1         26.1         27.1         28.1         29.1         30.1
     -0.320372    -0.317255    -0.315641    -0.315498    -0.308238    -0.294814    -0.292682    -0.184519    -0.022294    -0.019275

 Orbital energies for negative spin:

         1.1          2.1          3.1          4.1          5.1          6.1          7.1          8.1          9.1         10.1
    -14.009338    -9.945938    -9.919214    -9.906287    -9.905846    -9.900190    -9.898466    -0.818823    -0.736845    -0.662007

        11.1         12.1         13.1         14.1         15.1         16.1         17.1         18.1         19.1         20.1
     -0.595945    -0.559059    -0.528234    -0.491758    -0.420197    -0.410081    -0.384630    -0.373367    -0.350193    -0.328897

        21.1         22.1         23.1         24.1         25.1         26.1         27.1         28.1         29.1         30.1
     -0.317669    -0.317143    -0.315473    -0.315390    -0.304102    -0.292342    -0.290218    -0.106515    -0.022043    -0.019103


 HOMO     28.1    -0.184519 =      -5.0210eV
 LUMO    -28.1    -0.106515 =      -2.8984eV
 LUMO-HOMO         0.078003 =       2.1226eV

 EXPECTATION VALUE OF S**2:             0.75335202

 Occupation number threshold for pseudo-canonical orbitals: 1.9990 (occupied), 0.0010 (virtual)

 Number of pseudo-canonical occupied orbitals per symmetry:   26
 Number of active natural orbitals per symmetry:               3

 Natural orbitals saved to record    2200.2 (Orbital set 3)

 Orbital spaces for UNO-CAS (Min. occupation: 0.020  Max. occupation: 1.980):

 Closed:       27
 Active:        1


 **********************************************************************************************************************************
 DATASETS  * FILE   NREC   LENGTH (MB)   RECORD NAMES
              1      19       33.26       500      610      700      900      950      970     1000      129      960     1100   
                                          VAR    BASINP    GEOM    SYMINP    ZMAT    AOBASIS   BASIS     P2S    ABASIS      S 
                                         1400     1410     1200     1210     1080     1600     1650     1700     1800   
                                           T        V       H0       H01     AOSYM     SMH    MOLCAS    OPER     GRID   

              2       6        7.61       700     1000      520     2100     1800     2200   
                                         GEOM     BASIS   MCVARS     RHF     GRID      UKS  

 PROGRAMS   *        TOTAL    DF-UKS     DF-HF       INT
 CPU TIMES  *        18.83      8.81      9.58      0.31
 REAL TIME  *        21.27 SEC
 DISK USED  *        68.27 MB
 **********************************************************************************************************************************


 PROGRAM * OPT (Geometry optimization)     Authors: F. Eckert and H.-J. Werner


 BFGS update of hessian


********** USER DEFINED INT/FIX/CONSTRAINTS ****************

List of primitive internal coordinates

     N      Name     Type   Natoms   Atom list

     1    Bo0001     Bond        2      H10  C5  
     2    Bo0002     Bond        2      H10  C17 
     3    An0001     Angle       3      C5   H10  C17 

List of user defined internal/fixed coordinates and constraints

- - - - - - - - - - - - - - - - - - - - - - - - - - - - - - - - - 
    N      Name   Type      Pname     Coeff       Value   Unit
- - - - - - - - - - - - - - - - - - - - - - - - - - - - - - - - - 
    1    Cns001    Con     Bo0001     1.000     1.10000 Angstrom
- - - - - - - - - - - - - - - - - - - - - - - - - - - - - - - - - 
    2    Cns002    Con     Bo0002     1.000     1.00000 Angstrom
- - - - - - - - - - - - - - - - - - - - - - - - - - - - - - - - - 
    3    Cns003    Con     An0001     1.000   180.00000   Degree
- - - - - - - - - - - - - - - - - - - - - - - - - - - - - - - - - 


******************************************************************



 *** Long output written to logfile /mnt/storage/home/lb17101/optimizations/10/10_1.10_1.00.log ***


 Geometry optimization using default procedure for command CF-UKS-SCF

 Geometry written to block  1 of record 700

 SLAPAF optimizer by R. Lindh and Ignacio F. Galvan entered

 Constraints section
ConstraintsConstraintsConstraintsConstraintsConstraintsConstraintsConstraintsConstraintsConstraintsConstraints
ConstraintsConstraintsConstraintsConstraintsConstraintsConstraintsConstraintsConstraintsConstraintsConstraints
Constraints                                                                                        Constraints
Constraints                                 C O N S T R A I N T S                                  Constraints
Constraints                                                                                        Constraints

************************************************************************************************************************
BO0001 = BOND       H10   C5
BO0002 = BOND       H10   C17
AN0001 = ANGLE      C5    H10   C17
VALUES
BO0001 =      1.10000000 ANGSTROM
BO0002 =      1.00000000 ANGSTROM
AN0001 =    180.00000000 DEGREE
************************************************************************************************************************


 *************************************************************
 * Values of the primitive constraints                       *
 *************************************************************
 BO0001   : Bond Length=  2.999881 / Angstrom  5.668953 / bohr
 BO0002   : Bond Length=  1.100034 / Angstrom  2.078762 / bohr
 AN0001   : Angle=      174.1655   / Degree    3.039761 / rad

 *******************************************
 * Values of the constraints   / au or rad *
 *******************************************
   Label        C         C0
 Cns001      5.668953  2.078699
 Cns002      2.078762  1.889726
 Cns003      3.039761  3.141593


 ITER.   ENERGY(OLD)    ENERGY(NEW)      DE          GRADMAX     GRADNORM    GRADRMS     STEPMAX     STEPLEN     STEPRMS   CPU-time
   1  -289.90240527  -289.89958415     0.00282112  0.00679270  0.00902195  0.00119499  0.27027401  0.87129573  0.01528589     10.59

 Constraints section
ConstraintsConstraintsConstraintsConstraintsConstraintsConstraintsConstraintsConstraintsConstraintsConstraints
ConstraintsConstraintsConstraintsConstraintsConstraintsConstraintsConstraintsConstraintsConstraintsConstraints
Constraints                                                                                        Constraints
Constraints                                 C O N S T R A I N T S                                  Constraints
Constraints                                                                                        Constraints

************************************************************************************************************************
BO0001 = BOND       H10   C5
BO0002 = BOND       H10   C17
AN0001 = ANGLE      C5    H10   C17
VALUES
BO0001 =      1.10000000 ANGSTROM
BO0002 =      1.00000000 ANGSTROM
AN0001 =    180.00000000 DEGREE
************************************************************************************************************************


 *************************************************************
 * Values of the primitive constraints                       *
 *************************************************************
 BO0001   : Bond Length=  2.947325 / Angstrom  5.569637 / bohr
 BO0002   : Bond Length=  1.097262 / Angstrom  2.073525 / bohr
 AN0001   : Angle=      174.2484   / Degree    3.041208 / rad

 *******************************************
 * Values of the constraints   / au or rad *
 *******************************************
   Label        C         C0
 Cns001      5.569637  2.078699
 Cns002      2.073525  1.889726
 Cns003      3.041208  3.141593

   2  -289.89958415  -289.89971699    -0.00013284  0.02829275  0.05100823  0.00675620  0.91310555  2.33725106  0.04100440     22.32

 Constraints section
ConstraintsConstraintsConstraintsConstraintsConstraintsConstraintsConstraintsConstraintsConstraintsConstraints
ConstraintsConstraintsConstraintsConstraintsConstraintsConstraintsConstraintsConstraintsConstraintsConstraints
Constraints                                                                                        Constraints
Constraints                                 C O N S T R A I N T S                                  Constraints
Constraints                                                                                        Constraints

************************************************************************************************************************
BO0001 = BOND       H10   C5
BO0002 = BOND       H10   C17
AN0001 = ANGLE      C5    H10   C17
VALUES
BO0001 =      1.10000000 ANGSTROM
BO0002 =      1.00000000 ANGSTROM
AN0001 =    180.00000000 DEGREE
************************************************************************************************************************


 *************************************************************
 * Values of the primitive constraints                       *
 *************************************************************
 BO0001   : Bond Length=  2.835098 / Angstrom  5.357558 / bohr
 BO0002   : Bond Length=  1.091381 / Angstrom  2.062410 / bohr
 AN0001   : Angle=      174.5205   / Degree    3.045957 / rad

 *******************************************
 * Values of the constraints   / au or rad *
 *******************************************
   Label        C         C0
 Cns001      5.357558  2.078699
 Cns002      2.062410  1.889726
 Cns003      3.045957  3.141593

   3  -289.89971699  -289.90000682    -0.00028983  0.02123372  0.04321372  0.00572380  0.20422481  0.45073153  0.00790757     32.29

 Constraints section
ConstraintsConstraintsConstraintsConstraintsConstraintsConstraintsConstraintsConstraintsConstraintsConstraints
ConstraintsConstraintsConstraintsConstraintsConstraintsConstraintsConstraintsConstraintsConstraintsConstraints
Constraints                                                                                        Constraints
Constraints                                 C O N S T R A I N T S                                  Constraints
Constraints                                                                                        Constraints

************************************************************************************************************************
BO0001 = BOND       H10   C5
BO0002 = BOND       H10   C17
AN0001 = ANGLE      C5    H10   C17
VALUES
BO0001 =      1.10000000 ANGSTROM
BO0002 =      1.00000000 ANGSTROM
AN0001 =    180.00000000 DEGREE
************************************************************************************************************************


 *************************************************************
 * Values of the primitive constraints                       *
 *************************************************************
 BO0001   : Bond Length=  2.727400 / Angstrom  5.154039 / bohr
 BO0002   : Bond Length=  1.085699 / Angstrom  2.051674 / bohr
 AN0001   : Angle=      174.8688   / Degree    3.052036 / rad

 *******************************************
 * Values of the constraints   / au or rad *
 *******************************************
   Label        C         C0
 Cns001      5.154039  2.078699
 Cns002      2.051674  1.889726
 Cns003      3.052036  3.141593

   4  -289.90000682  -289.89751501     0.00249181  0.03220218  0.04691549  0.00621411  0.11161602  0.28715096  0.00503774     42.44

 Constraints section
ConstraintsConstraintsConstraintsConstraintsConstraintsConstraintsConstraintsConstraintsConstraintsConstraints
ConstraintsConstraintsConstraintsConstraintsConstraintsConstraintsConstraintsConstraintsConstraintsConstraints
Constraints                                                                                        Constraints
Constraints                                 C O N S T R A I N T S                                  Constraints
Constraints                                                                                        Constraints

************************************************************************************************************************
BO0001 = BOND       H10   C5
BO0002 = BOND       H10   C17
AN0001 = ANGLE      C5    H10   C17
VALUES
BO0001 =      1.10000000 ANGSTROM
BO0002 =      1.00000000 ANGSTROM
AN0001 =    180.00000000 DEGREE
************************************************************************************************************************


 *************************************************************
 * Values of the primitive constraints                       *
 *************************************************************
 BO0001   : Bond Length=  2.671775 / Angstrom  5.048922 / bohr
 BO0002   : Bond Length=  1.082759 / Angstrom  2.046118 / bohr
 AN0001   : Angle=      175.0431   / Degree    3.055078 / rad

 *******************************************
 * Values of the constraints   / au or rad *
 *******************************************
   Label        C         C0
 Cns001      5.048922  2.078699
 Cns002      2.046118  1.889726
 Cns003      3.055078  3.141593

   5  -289.89751501  -289.89453420     0.00298081  0.05634992  0.07965805  0.01055097  0.11231543  0.28123481  0.00493394     52.67

 Constraints section
ConstraintsConstraintsConstraintsConstraintsConstraintsConstraintsConstraintsConstraintsConstraintsConstraints
ConstraintsConstraintsConstraintsConstraintsConstraintsConstraintsConstraintsConstraintsConstraintsConstraints
Constraints                                                                                        Constraints
Constraints                                 C O N S T R A I N T S                                  Constraints
Constraints                                                                                        Constraints

************************************************************************************************************************
BO0001 = BOND       H10   C5
BO0002 = BOND       H10   C17
AN0001 = ANGLE      C5    H10   C17
VALUES
BO0001 =      1.10000000 ANGSTROM
BO0002 =      1.00000000 ANGSTROM
AN0001 =    180.00000000 DEGREE
************************************************************************************************************************


 *************************************************************
 * Values of the primitive constraints                       *
 *************************************************************
 BO0001   : Bond Length=  2.616189 / Angstrom  4.943880 / bohr
 BO0002   : Bond Length=  1.079826 / Angstrom  2.040576 / bohr
 AN0001   : Angle=      175.2202   / Degree    3.058169 / rad

 *******************************************
 * Values of the constraints   / au or rad *
 *******************************************
   Label        C         C0
 Cns001      4.943880  2.078699
 Cns002      2.040576  1.889726
 Cns003      3.058169  3.141593

   6  -289.89453420  -289.90222747    -0.00769327  0.07238844  0.10483472  0.01388570  0.12685667  0.30696107  0.00538528     62.88

 Constraints section
ConstraintsConstraintsConstraintsConstraintsConstraintsConstraintsConstraintsConstraintsConstraintsConstraints
ConstraintsConstraintsConstraintsConstraintsConstraintsConstraintsConstraintsConstraintsConstraintsConstraints
Constraints                                                                                        Constraints
Constraints                                 C O N S T R A I N T S                                  Constraints
Constraints                                                                                        Constraints

************************************************************************************************************************
BO0001 = BOND       H10   C5
BO0002 = BOND       H10   C17
AN0001 = ANGLE      C5    H10   C17
VALUES
BO0001 =      1.10000000 ANGSTROM
BO0002 =      1.00000000 ANGSTROM
AN0001 =    180.00000000 DEGREE
************************************************************************************************************************


 *************************************************************
 * Values of the primitive constraints                       *
 *************************************************************
 BO0001   : Bond Length=  2.536956 / Angstrom  4.794151 / bohr
 BO0002   : Bond Length=  1.075655 / Angstrom  2.032693 / bohr
 AN0001   : Angle=      175.4514   / Degree    3.062204 / rad

 *******************************************
 * Values of the constraints   / au or rad *
 *******************************************
   Label        C         C0
 Cns001      4.794151  2.078699
 Cns002      2.032693  1.889726
 Cns003      3.062204  3.141593

   7  -289.90222747  -289.90304155    -0.00081408  0.01631674  0.03206807  0.00424752  0.22398315  0.55323954  0.00970596     72.77

 Constraints section
ConstraintsConstraintsConstraintsConstraintsConstraintsConstraintsConstraintsConstraintsConstraintsConstraints
ConstraintsConstraintsConstraintsConstraintsConstraintsConstraintsConstraintsConstraintsConstraintsConstraints
Constraints                                                                                        Constraints
Constraints                                 C O N S T R A I N T S                                  Constraints
Constraints                                                                                        Constraints

************************************************************************************************************************
BO0001 = BOND       H10   C5
BO0002 = BOND       H10   C17
AN0001 = ANGLE      C5    H10   C17
VALUES
BO0001 =      1.10000000 ANGSTROM
BO0002 =      1.00000000 ANGSTROM
AN0001 =    180.00000000 DEGREE
************************************************************************************************************************


 *************************************************************
 * Values of the primitive constraints                       *
 *************************************************************
 BO0001   : Bond Length=  2.457723 / Angstrom  4.644423 / bohr
 BO0002   : Bond Length=  1.071483 / Angstrom  2.024809 / bohr
 AN0001   : Angle=      174.5962   / Degree    3.047279 / rad

 *******************************************
 * Values of the constraints   / au or rad *
 *******************************************
   Label        C         C0
 Cns001      4.644423  2.078699
 Cns002      2.024809  1.889726
 Cns003      3.047279  3.141593

   8  -289.90304155  -289.90253087     0.00051068  0.01881719  0.02836952  0.00375763  0.15511287  0.41808936  0.00733490     82.84

 Constraints section
ConstraintsConstraintsConstraintsConstraintsConstraintsConstraintsConstraintsConstraintsConstraintsConstraints
ConstraintsConstraintsConstraintsConstraintsConstraintsConstraintsConstraintsConstraintsConstraintsConstraints
Constraints                                                                                        Constraints
Constraints                                 C O N S T R A I N T S                                  Constraints
Constraints                                                                                        Constraints

************************************************************************************************************************
BO0001 = BOND       H10   C5
BO0002 = BOND       H10   C17
AN0001 = ANGLE      C5    H10   C17
VALUES
BO0001 =      1.10000000 ANGSTROM
BO0002 =      1.00000000 ANGSTROM
AN0001 =    180.00000000 DEGREE
************************************************************************************************************************


 *************************************************************
 * Values of the primitive constraints                       *
 *************************************************************
 BO0001   : Bond Length=  2.346273 / Angstrom  4.433814 / bohr
 BO0002   : Bond Length=  1.065615 / Angstrom  2.013721 / bohr
 AN0001   : Angle=      174.5217   / Degree    3.045978 / rad

 *******************************************
 * Values of the constraints   / au or rad *
 *******************************************
   Label        C         C0
 Cns001      4.433814  2.078699
 Cns002      2.013721  1.889726
 Cns003      3.045978  3.141593

   9  -289.90253087  -289.90239903     0.00013184  0.02453952  0.04033209  0.00534212  0.21828021  0.52782294  0.00926005     93.56

 Constraints section
ConstraintsConstraintsConstraintsConstraintsConstraintsConstraintsConstraintsConstraintsConstraintsConstraints
ConstraintsConstraintsConstraintsConstraintsConstraintsConstraintsConstraintsConstraintsConstraintsConstraints
Constraints                                                                                        Constraints
Constraints                                 C O N S T R A I N T S                                  Constraints
Constraints                                                                                        Constraints

************************************************************************************************************************
BO0001 = BOND       H10   C5
BO0002 = BOND       H10   C17
AN0001 = ANGLE      C5    H10   C17
VALUES
BO0001 =      1.10000000 ANGSTROM
BO0002 =      1.00000000 ANGSTROM
AN0001 =    180.00000000 DEGREE
************************************************************************************************************************


 *************************************************************
 * Values of the primitive constraints                       *
 *************************************************************
 BO0001   : Bond Length=  2.267072 / Angstrom  4.284145 / bohr
 BO0002   : Bond Length=  1.061446 / Angstrom  2.005841 / bohr
 AN0001   : Angle=      174.7635   / Degree    3.050199 / rad

 *******************************************
 * Values of the constraints   / au or rad *
 *******************************************
   Label        C         C0
 Cns001      4.284145  2.078699
 Cns002      2.005841  1.889726
 Cns003      3.050199  3.141593

  10  -289.90239903  -289.90065896     0.00174007  0.03036339  0.04376337  0.00579660  0.18400761  0.48817297  0.00856444    103.35

 Constraints section
ConstraintsConstraintsConstraintsConstraintsConstraintsConstraintsConstraintsConstraintsConstraintsConstraints
ConstraintsConstraintsConstraintsConstraintsConstraintsConstraintsConstraintsConstraintsConstraintsConstraints
Constraints                                                                                        Constraints
Constraints                                 C O N S T R A I N T S                                  Constraints
Constraints                                                                                        Constraints

************************************************************************************************************************
BO0001 = BOND       H10   C5
BO0002 = BOND       H10   C17
AN0001 = ANGLE      C5    H10   C17
VALUES
BO0001 =      1.10000000 ANGSTROM
BO0002 =      1.00000000 ANGSTROM
AN0001 =    180.00000000 DEGREE
************************************************************************************************************************


 *************************************************************
 * Values of the primitive constraints                       *
 *************************************************************
 BO0001   : Bond Length=  2.109142 / Angstrom  3.985702 / bohr
 BO0002   : Bond Length=  1.053131 / Angstrom  1.990129 / bohr
 AN0001   : Angle=      175.4637   / Degree    3.062419 / rad

 *******************************************
 * Values of the constraints   / au or rad *
 *******************************************
   Label        C         C0
 Cns001      3.985702  2.078699
 Cns002      1.990129  1.889726
 Cns003      3.062419  3.141593

  11  -289.90065896  -289.89813328     0.00252569  0.04001274  0.05964022  0.00789954  0.29409853  0.68005954  0.01193087    113.45

 Constraints section
ConstraintsConstraintsConstraintsConstraintsConstraintsConstraintsConstraintsConstraintsConstraintsConstraints
ConstraintsConstraintsConstraintsConstraintsConstraintsConstraintsConstraintsConstraintsConstraintsConstraints
Constraints                                                                                        Constraints
Constraints                                 C O N S T R A I N T S                                  Constraints
Constraints                                                                                        Constraints

************************************************************************************************************************
BO0001 = BOND       H10   C5
BO0002 = BOND       H10   C17
AN0001 = ANGLE      C5    H10   C17
VALUES
BO0001 =      1.10000000 ANGSTROM
BO0002 =      1.00000000 ANGSTROM
AN0001 =    180.00000000 DEGREE
************************************************************************************************************************


 *************************************************************
 * Values of the primitive constraints                       *
 *************************************************************
 BO0001   : Bond Length=  2.029944 / Angstrom  3.836038 / bohr
 BO0002   : Bond Length=  1.048961 / Angstrom  1.982249 / bohr
 AN0001   : Angle=      175.8043   / Degree    3.068363 / rad

 *******************************************
 * Values of the constraints   / au or rad *
 *******************************************
   Label        C         C0
 Cns001      3.836038  2.078699
 Cns002      1.982249  1.889726
 Cns003      3.068363  3.141593

  12  -289.89813328  -289.89318972     0.00494355  0.04626547  0.06725482  0.00890812  0.36638244  0.79697598  0.01398203    123.96

 Constraints section
ConstraintsConstraintsConstraintsConstraintsConstraintsConstraintsConstraintsConstraintsConstraintsConstraints
ConstraintsConstraintsConstraintsConstraintsConstraintsConstraintsConstraintsConstraintsConstraintsConstraints
Constraints                                                                                        Constraints
Constraints                                 C O N S T R A I N T S                                  Constraints
Constraints                                                                                        Constraints

************************************************************************************************************************
BO0001 = BOND       H10   C5
BO0002 = BOND       H10   C17
AN0001 = ANGLE      C5    H10   C17
VALUES
BO0001 =      1.10000000 ANGSTROM
BO0002 =      1.00000000 ANGSTROM
AN0001 =    180.00000000 DEGREE
************************************************************************************************************************


 *************************************************************
 * Values of the primitive constraints                       *
 *************************************************************
 BO0001   : Bond Length=  1.801371 / Angstrom  3.404098 / bohr
 BO0002   : Bond Length=  1.036927 / Angstrom  1.959508 / bohr
 AN0001   : Angle=      176.7249   / Degree    3.084431 / rad

 *******************************************
 * Values of the constraints   / au or rad *
 *******************************************
   Label        C         C0
 Cns001      3.404098  2.078699
 Cns002      1.959508  1.889726
 Cns003      3.084431  3.141593

  13  -289.89318972  -289.88515951     0.00803021  0.06780959  0.09147550  0.01211623  0.26664888  0.71373956  0.01252175    134.33

 Constraints section
ConstraintsConstraintsConstraintsConstraintsConstraintsConstraintsConstraintsConstraintsConstraintsConstraints
ConstraintsConstraintsConstraintsConstraintsConstraintsConstraintsConstraintsConstraintsConstraintsConstraints
Constraints                                                                                        Constraints
Constraints                                 C O N S T R A I N T S                                  Constraints
Constraints                                                                                        Constraints

************************************************************************************************************************
BO0001 = BOND       H10   C5
BO0002 = BOND       H10   C17
AN0001 = ANGLE      C5    H10   C17
VALUES
BO0001 =      1.10000000 ANGSTROM
BO0002 =      1.00000000 ANGSTROM
AN0001 =    180.00000000 DEGREE
************************************************************************************************************************


 *************************************************************
 * Values of the primitive constraints                       *
 *************************************************************
 BO0001   : Bond Length=  1.644627 / Angstrom  3.107894 / bohr
 BO0002   : Bond Length=  1.028674 / Angstrom  1.943913 / bohr
 AN0001   : Angle=      177.3758   / Degree    3.095792 / rad

 *******************************************
 * Values of the constraints   / au or rad *
 *******************************************
   Label        C         C0
 Cns001      3.107894  2.078699
 Cns002      1.943913  1.889726
 Cns003      3.095792  3.141593

  14  -289.88515951  -289.86404770     0.02111180  0.08929821  0.11417681  0.01512309  0.38592696  0.82441392  0.01446340    145.99

 Constraints section
ConstraintsConstraintsConstraintsConstraintsConstraintsConstraintsConstraintsConstraintsConstraintsConstraints
ConstraintsConstraintsConstraintsConstraintsConstraintsConstraintsConstraintsConstraintsConstraintsConstraints
Constraints                                                                                        Constraints
Constraints                                 C O N S T R A I N T S                                  Constraints
Constraints                                                                                        Constraints

************************************************************************************************************************
BO0001 = BOND       H10   C5
BO0002 = BOND       H10   C17
AN0001 = ANGLE      C5    H10   C17
VALUES
BO0001 =      1.10000000 ANGSTROM
BO0002 =      1.00000000 ANGSTROM
AN0001 =    180.00000000 DEGREE
************************************************************************************************************************


 *************************************************************
 * Values of the primitive constraints                       *
 *************************************************************
 BO0001   : Bond Length=  1.422671 / Angstrom  2.688459 / bohr
 BO0002   : Bond Length=  1.016989 / Angstrom  1.921830 / bohr
  Valence angle close to end in range of definition
 AN0001   : Angle=      178.1765   / Degree    3.109767 / rad

 *******************************************
 * Values of the constraints   / au or rad *
 *******************************************
   Label        C         C0
 Cns001      2.688459  2.078699
 Cns002      1.921830  1.889726
 Cns003      3.109767  3.141593

  15  -289.86404770  -289.84981583     0.01423187  0.12417543  0.16002020  0.02119519  0.30000376  0.80533469  0.01412868    158.07

 Constraints section
ConstraintsConstraintsConstraintsConstraintsConstraintsConstraintsConstraintsConstraintsConstraintsConstraints
ConstraintsConstraintsConstraintsConstraintsConstraintsConstraintsConstraintsConstraintsConstraintsConstraints
Constraints                                                                                        Constraints
Constraints                                 C O N S T R A I N T S                                  Constraints
Constraints                                                                                        Constraints

************************************************************************************************************************
BO0001 = BOND       H10   C5
BO0002 = BOND       H10   C17
AN0001 = ANGLE      C5    H10   C17
VALUES
BO0001 =      1.10000000 ANGSTROM
BO0002 =      1.00000000 ANGSTROM
AN0001 =    180.00000000 DEGREE
************************************************************************************************************************


 *************************************************************
 * Values of the primitive constraints                       *
 *************************************************************
 BO0001   : Bond Length=  1.312436 / Angstrom  2.480145 / bohr
 BO0002   : Bond Length=  1.011185 / Angstrom  1.910862 / bohr
  Valence angle close to end in range of definition
 AN0001   : Angle=      178.6176   / Degree    3.117466 / rad

 *******************************************
 * Values of the constraints   / au or rad *
 *******************************************
   Label        C         C0
 Cns001      2.480145  2.078699
 Cns002      1.910862  1.889726
 Cns003      3.117466  3.141593

  16  -289.84981583  -289.79855663     0.05125920  0.15452783  0.19331322  0.02560496  0.47165298  0.88046551  0.01544676    170.49

 Constraints section
ConstraintsConstraintsConstraintsConstraintsConstraintsConstraintsConstraintsConstraintsConstraintsConstraints
ConstraintsConstraintsConstraintsConstraintsConstraintsConstraintsConstraintsConstraintsConstraintsConstraints
Constraints                                                                                        Constraints
Constraints                                 C O N S T R A I N T S                                  Constraints
Constraints                                                                                        Constraints

************************************************************************************************************************
BO0001 = BOND       H10   C5
BO0002 = BOND       H10   C17
AN0001 = ANGLE      C5    H10   C17
VALUES
BO0001 =      1.10000000 ANGSTROM
BO0002 =      1.00000000 ANGSTROM
AN0001 =    180.00000000 DEGREE
************************************************************************************************************************


 *************************************************************
 * Values of the primitive constraints                       *
 *************************************************************
 BO0001   : Bond Length=  1.100000 / Angstrom  2.078699 / bohr
 BO0002   : Bond Length=  1.000000 / Angstrom  1.889726 / bohr
  Valence angle close to end in range of definition
 AN0001   : Angle=      179.0252   / Degree    3.124579 / rad

 *******************************************
 * Values of the constraints   / au or rad *
 *******************************************
   Label        C         C0
 Cns001      2.078699  2.078699
 Cns002      1.889726  1.889726
 Cns003      3.124579  3.141593

  17  -289.79855663  -289.80131872    -0.00276209  0.21243585  0.27552524  0.03649421  0.20649699  0.40134771  0.00704119    182.84

 Constraints section
ConstraintsConstraintsConstraintsConstraintsConstraintsConstraintsConstraintsConstraintsConstraintsConstraints
ConstraintsConstraintsConstraintsConstraintsConstraintsConstraintsConstraintsConstraintsConstraintsConstraints
Constraints                                                                                        Constraints
Constraints                                 C O N S T R A I N T S                                  Constraints
Constraints                                                                                        Constraints

************************************************************************************************************************
BO0001 = BOND       H10   C5
BO0002 = BOND       H10   C17
AN0001 = ANGLE      C5    H10   C17
VALUES
BO0001 =      1.10000000 ANGSTROM
BO0002 =      1.00000000 ANGSTROM
AN0001 =    180.00000000 DEGREE
************************************************************************************************************************


 *************************************************************
 * Values of the primitive constraints                       *
 *************************************************************
 BO0001   : Bond Length=  1.100000 / Angstrom  2.078699 / bohr
 BO0002   : Bond Length=  1.000000 / Angstrom  1.889726 / bohr
  Valence angle close to end in range of definition
 AN0001   : Angle=      179.4345   / Degree    3.131723 / rad

 *******************************************
 * Values of the constraints   / au or rad *
 *******************************************
   Label        C         C0
 Cns001      2.078699  2.078699
 Cns002      1.889726  1.889726
 Cns003      3.131723  3.141593

  18  -289.80131872  -289.80298030    -0.00166157  0.21806925  0.28603597  0.03788639  0.17548667  0.41851910  0.00734244    194.52

 Constraints section
ConstraintsConstraintsConstraintsConstraintsConstraintsConstraintsConstraintsConstraintsConstraintsConstraints
ConstraintsConstraintsConstraintsConstraintsConstraintsConstraintsConstraintsConstraintsConstraintsConstraints
Constraints                                                                                        Constraints
Constraints                                 C O N S T R A I N T S                                  Constraints
Constraints                                                                                        Constraints

************************************************************************************************************************
BO0001 = BOND       H10   C5
BO0002 = BOND       H10   C17
AN0001 = ANGLE      C5    H10   C17
VALUES
BO0001 =      1.10000000 ANGSTROM
BO0002 =      1.00000000 ANGSTROM
AN0001 =    180.00000000 DEGREE
************************************************************************************************************************


 *************************************************************
 * Values of the primitive constraints                       *
 *************************************************************
 BO0001   : Bond Length=  1.100000 / Angstrom  2.078699 / bohr
 BO0002   : Bond Length=  1.000000 / Angstrom  1.889726 / bohr
  Valence angle close to end in range of definition
 AN0001   : Angle=      179.9310   / Degree    3.140388 / rad

 *******************************************
 * Values of the constraints   / au or rad *
 *******************************************
   Label        C         C0
 Cns001      2.078699  2.078699
 Cns002      1.889726  1.889726
 Cns003      3.140388  3.141593

  19  -289.80298030  -289.80441909    -0.00143880  0.21807341  0.28877289  0.03824890  0.14780460  0.29241029  0.00513001    206.63

 Constraints section
ConstraintsConstraintsConstraintsConstraintsConstraintsConstraintsConstraintsConstraintsConstraintsConstraints
ConstraintsConstraintsConstraintsConstraintsConstraintsConstraintsConstraintsConstraintsConstraintsConstraints
Constraints                                                                                        Constraints
Constraints                                 C O N S T R A I N T S                                  Constraints
Constraints                                                                                        Constraints

************************************************************************************************************************
BO0001 = BOND       H10   C5
BO0002 = BOND       H10   C17
AN0001 = ANGLE      C5    H10   C17
VALUES
BO0001 =      1.10000000 ANGSTROM
BO0002 =      1.00000000 ANGSTROM
AN0001 =    180.00000000 DEGREE
************************************************************************************************************************


 *************************************************************
 * Values of the primitive constraints                       *
 *************************************************************
 BO0001   : Bond Length=  1.100000 / Angstrom  2.078698 / bohr
 BO0002   : Bond Length=  1.000000 / Angstrom  1.889726 / bohr
  Valence angle close to end in range of definition
 AN0001   : Angle=      177.5645   / Degree    3.099086 / rad

 *******************************************
 * Values of the constraints   / au or rad *
 *******************************************
   Label        C         C0
 Cns001      2.078698  2.078699
 Cns002      1.889726  1.889726
 Cns003      3.099086  3.141593

  20  -289.80441909  -289.80553440    -0.00111531  0.21374013  0.28558257  0.03782633  0.16679252  0.39847411  0.00699077    218.64

 Constraints section
ConstraintsConstraintsConstraintsConstraintsConstraintsConstraintsConstraintsConstraintsConstraintsConstraints
ConstraintsConstraintsConstraintsConstraintsConstraintsConstraintsConstraintsConstraintsConstraintsConstraints
Constraints                                                                                        Constraints
Constraints                                 C O N S T R A I N T S                                  Constraints
Constraints                                                                                        Constraints

************************************************************************************************************************
BO0001 = BOND       H10   C5
BO0002 = BOND       H10   C17
AN0001 = ANGLE      C5    H10   C17
VALUES
BO0001 =      1.10000000 ANGSTROM
BO0002 =      1.00000000 ANGSTROM
AN0001 =    180.00000000 DEGREE
************************************************************************************************************************


 *************************************************************
 * Values of the primitive constraints                       *
 *************************************************************
 BO0001   : Bond Length=  1.099999 / Angstrom  2.078697 / bohr
 BO0002   : Bond Length=  0.999999 / Angstrom  1.889725 / bohr
  Valence angle close to end in range of definition
 AN0001   : Angle=      179.9183   / Degree    3.140167 / rad

 *******************************************
 * Values of the constraints   / au or rad *
 *******************************************
   Label        C         C0
 Cns001      2.078697  2.078699
 Cns002      1.889725  1.889726
 Cns003      3.140167  3.141593

  21  -289.80553440  -289.80788190    -0.00234750  0.21168578  0.28184180  0.03733086  0.30687036  0.49696459  0.00871868    231.34

 Constraints section
ConstraintsConstraintsConstraintsConstraintsConstraintsConstraintsConstraintsConstraintsConstraintsConstraints
ConstraintsConstraintsConstraintsConstraintsConstraintsConstraintsConstraintsConstraintsConstraintsConstraints
Constraints                                                                                        Constraints
Constraints                                 C O N S T R A I N T S                                  Constraints
Constraints                                                                                        Constraints

************************************************************************************************************************
BO0001 = BOND       H10   C5
BO0002 = BOND       H10   C17
AN0001 = ANGLE      C5    H10   C17
VALUES
BO0001 =      1.10000000 ANGSTROM
BO0002 =      1.00000000 ANGSTROM
AN0001 =    180.00000000 DEGREE
************************************************************************************************************************


 *************************************************************
 * Values of the primitive constraints                       *
 *************************************************************
 BO0001   : Bond Length=  1.099997 / Angstrom  2.078694 / bohr
 BO0002   : Bond Length=  0.999998 / Angstrom  1.889723 / bohr
 AN0001   : Angle=      176.4486   / Degree    3.079609 / rad

 *******************************************
 * Values of the constraints   / au or rad *
 *******************************************
   Label        C         C0
 Cns001      2.078694  2.078699
 Cns002      1.889723  1.889726
 Cns003      3.079609  3.141593

  22  -289.80788190  -289.80817735    -0.00029545  0.20116966  0.26971561  0.03572471  0.20163998  0.32271681  0.00566170    243.44

 Constraints section
ConstraintsConstraintsConstraintsConstraintsConstraintsConstraintsConstraintsConstraintsConstraintsConstraints
ConstraintsConstraintsConstraintsConstraintsConstraintsConstraintsConstraintsConstraintsConstraintsConstraints
Constraints                                                                                        Constraints
Constraints                                 C O N S T R A I N T S                                  Constraints
Constraints                                                                                        Constraints

************************************************************************************************************************
BO0001 = BOND       H10   C5
BO0002 = BOND       H10   C17
AN0001 = ANGLE      C5    H10   C17
VALUES
BO0001 =      1.10000000 ANGSTROM
BO0002 =      1.00000000 ANGSTROM
AN0001 =    180.00000000 DEGREE
************************************************************************************************************************


 *************************************************************
 * Values of the primitive constraints                       *
 *************************************************************
 BO0001   : Bond Length=  1.099994 / Angstrom  2.078687 / bohr
 BO0002   : Bond Length=  0.999997 / Angstrom  1.889721 / bohr
  Valence angle close to end in range of definition
 AN0001   : Angle=      179.7373   / Degree    3.137008 / rad

 *******************************************
 * Values of the constraints   / au or rad *
 *******************************************
   Label        C         C0
 Cns001      2.078687  2.078699
 Cns002      1.889721  1.889726
 Cns003      3.137008  3.141593

  23  -289.80817735  -289.80898656    -0.00080921  0.20031703  0.26525996  0.03513454  0.12519188  0.17374773  0.00304821    255.52

 Constraints section
ConstraintsConstraintsConstraintsConstraintsConstraintsConstraintsConstraintsConstraintsConstraintsConstraints
ConstraintsConstraintsConstraintsConstraintsConstraintsConstraintsConstraintsConstraintsConstraintsConstraints
Constraints                                                                                        Constraints
Constraints                                 C O N S T R A I N T S                                  Constraints
Constraints                                                                                        Constraints

************************************************************************************************************************
BO0001 = BOND       H10   C5
BO0002 = BOND       H10   C17
AN0001 = ANGLE      C5    H10   C17
VALUES
BO0001 =      1.10000000 ANGSTROM
BO0002 =      1.00000000 ANGSTROM
AN0001 =    180.00000000 DEGREE
************************************************************************************************************************


 *************************************************************
 * Values of the primitive constraints                       *
 *************************************************************
 BO0001   : Bond Length=  1.100000 / Angstrom  2.078699 / bohr
 BO0002   : Bond Length=  1.000000 / Angstrom  1.889726 / bohr
 AN0001   : Angle=      176.6575   / Degree    3.083255 / rad

 *******************************************
 * Values of the constraints   / au or rad *
 *******************************************
   Label        C         C0
 Cns001      2.078699  2.078699
 Cns002      1.889726  1.889726
 Cns003      3.083255  3.141593

  24  -289.80898656  -289.80858768     0.00039888  0.19667235  0.26347186  0.03489770  0.11145807  0.18038399  0.00316463    267.04

 Constraints section
ConstraintsConstraintsConstraintsConstraintsConstraintsConstraintsConstraintsConstraintsConstraintsConstraints
ConstraintsConstraintsConstraintsConstraintsConstraintsConstraintsConstraintsConstraintsConstraintsConstraints
Constraints                                                                                        Constraints
Constraints                                 C O N S T R A I N T S                                  Constraints
Constraints                                                                                        Constraints

************************************************************************************************************************
BO0001 = BOND       H10   C5
BO0002 = BOND       H10   C17
AN0001 = ANGLE      C5    H10   C17
VALUES
BO0001 =      1.10000000 ANGSTROM
BO0002 =      1.00000000 ANGSTROM
AN0001 =    180.00000000 DEGREE
************************************************************************************************************************


 *************************************************************
 * Values of the primitive constraints                       *
 *************************************************************
 BO0001   : Bond Length=  1.100000 / Angstrom  2.078699 / bohr
 BO0002   : Bond Length=  1.000000 / Angstrom  1.889726 / bohr
  Valence angle close to end in range of definition
 AN0001   : Angle=      179.9627   / Degree    3.140941 / rad

 *******************************************
 * Values of the constraints   / au or rad *
 *******************************************
   Label        C         C0
 Cns001      2.078699  2.078699
 Cns002      1.889726  1.889726
 Cns003      3.140941  3.141593

  25  -289.80858768  -289.80915764    -0.00056996  0.20327507  0.26836522  0.03554584  0.04009158  0.06548497  0.00114886    277.76

 Constraints section
ConstraintsConstraintsConstraintsConstraintsConstraintsConstraintsConstraintsConstraintsConstraintsConstraints
ConstraintsConstraintsConstraintsConstraintsConstraintsConstraintsConstraintsConstraintsConstraintsConstraints
Constraints                                                                                        Constraints
Constraints                                 C O N S T R A I N T S                                  Constraints
Constraints                                                                                        Constraints

************************************************************************************************************************
BO0001 = BOND       H10   C5
BO0002 = BOND       H10   C17
AN0001 = ANGLE      C5    H10   C17
VALUES
BO0001 =      1.10000000 ANGSTROM
BO0002 =      1.00000000 ANGSTROM
AN0001 =    180.00000000 DEGREE
************************************************************************************************************************


 *************************************************************
 * Values of the primitive constraints                       *
 *************************************************************
 BO0001   : Bond Length=  1.100000 / Angstrom  2.078699 / bohr
 BO0002   : Bond Length=  1.000000 / Angstrom  1.889726 / bohr
 AN0001   : Angle=      177.0374   / Degree    3.089886 / rad

 *******************************************
 * Values of the constraints   / au or rad *
 *******************************************
   Label        C         C0
 Cns001      2.078699  2.078699
 Cns002      1.889726  1.889726
 Cns003      3.089886  3.141593

  26  -289.80915764  -289.80864152     0.00051612  0.20074201  0.26715335  0.03538533  0.03599234  0.08758501  0.00153658    288.56

 Constraints section
ConstraintsConstraintsConstraintsConstraintsConstraintsConstraintsConstraintsConstraintsConstraintsConstraints
ConstraintsConstraintsConstraintsConstraintsConstraintsConstraintsConstraintsConstraintsConstraintsConstraints
Constraints                                                                                        Constraints
Constraints                                 C O N S T R A I N T S                                  Constraints
Constraints                                                                                        Constraints

************************************************************************************************************************
BO0001 = BOND       H10   C5
BO0002 = BOND       H10   C17
AN0001 = ANGLE      C5    H10   C17
VALUES
BO0001 =      1.10000000 ANGSTROM
BO0002 =      1.00000000 ANGSTROM
AN0001 =    180.00000000 DEGREE
************************************************************************************************************************


 *************************************************************
 * Values of the primitive constraints                       *
 *************************************************************
 BO0001   : Bond Length=  1.100000 / Angstrom  2.078698 / bohr
 BO0002   : Bond Length=  1.000000 / Angstrom  1.889726 / bohr
  Valence angle close to end in range of definition
 AN0001   : Angle=      179.8296   / Degree    3.138619 / rad

 *******************************************
 * Values of the constraints   / au or rad *
 *******************************************
   Label        C         C0
 Cns001      2.078698  2.078699
 Cns002      1.889726  1.889726
 Cns003      3.138619  3.141593

  27  -289.80864152  -289.80920863    -0.00056711  0.20100826  0.26529885  0.03513969  0.03838335  0.06716515  0.00117834    299.47

 Constraints section
ConstraintsConstraintsConstraintsConstraintsConstraintsConstraintsConstraintsConstraintsConstraintsConstraints
ConstraintsConstraintsConstraintsConstraintsConstraintsConstraintsConstraintsConstraintsConstraintsConstraints
Constraints                                                                                        Constraints
Constraints                                 C O N S T R A I N T S                                  Constraints
Constraints                                                                                        Constraints

************************************************************************************************************************
BO0001 = BOND       H10   C5
BO0002 = BOND       H10   C17
AN0001 = ANGLE      C5    H10   C17
VALUES
BO0001 =      1.10000000 ANGSTROM
BO0002 =      1.00000000 ANGSTROM
AN0001 =    180.00000000 DEGREE
************************************************************************************************************************


 *************************************************************
 * Values of the primitive constraints                       *
 *************************************************************
 BO0001   : Bond Length=  1.100000 / Angstrom  2.078699 / bohr
 BO0002   : Bond Length=  1.000000 / Angstrom  1.889726 / bohr
 AN0001   : Angle=      177.1161   / Degree    3.091259 / rad

 *******************************************
 * Values of the constraints   / au or rad *
 *******************************************
   Label        C         C0
 Cns001      2.078699  2.078699
 Cns002      1.889726  1.889726
 Cns003      3.091259  3.141593

  28  -289.80920863  -289.80866040     0.00054822  0.19924819  0.26481064  0.03507503  0.03740553  0.06729286  0.00118058    310.10

 Constraints section
ConstraintsConstraintsConstraintsConstraintsConstraintsConstraintsConstraintsConstraintsConstraintsConstraints
ConstraintsConstraintsConstraintsConstraintsConstraintsConstraintsConstraintsConstraintsConstraintsConstraints
Constraints                                                                                        Constraints
Constraints                                 C O N S T R A I N T S                                  Constraints
Constraints                                                                                        Constraints

************************************************************************************************************************
BO0001 = BOND       H10   C5
BO0002 = BOND       H10   C17
AN0001 = ANGLE      C5    H10   C17
VALUES
BO0001 =      1.10000000 ANGSTROM
BO0002 =      1.00000000 ANGSTROM
AN0001 =    180.00000000 DEGREE
************************************************************************************************************************


 *************************************************************
 * Values of the primitive constraints                       *
 *************************************************************
 BO0001   : Bond Length=  1.100000 / Angstrom  2.078699 / bohr
 BO0002   : Bond Length=  1.000000 / Angstrom  1.889726 / bohr
  Valence angle close to end in range of definition
 AN0001   : Angle=      179.8825   / Degree    3.139542 / rad

 *******************************************
 * Values of the constraints   / au or rad *
 *******************************************
   Label        C         C0
 Cns001      2.078699  2.078699
 Cns002      1.889726  1.889726
 Cns003      3.139542  3.141593

  29  -289.80866040  -289.80923985    -0.00057945  0.20146854  0.26542484  0.03515638  0.03787653  0.06467126  0.00113458    320.70

 Constraints section
ConstraintsConstraintsConstraintsConstraintsConstraintsConstraintsConstraintsConstraintsConstraintsConstraints
ConstraintsConstraintsConstraintsConstraintsConstraintsConstraintsConstraintsConstraintsConstraintsConstraints
Constraints                                                                                        Constraints
Constraints                                 C O N S T R A I N T S                                  Constraints
Constraints                                                                                        Constraints

************************************************************************************************************************
BO0001 = BOND       H10   C5
BO0002 = BOND       H10   C17
AN0001 = ANGLE      C5    H10   C17
VALUES
BO0001 =      1.10000000 ANGSTROM
BO0002 =      1.00000000 ANGSTROM
AN0001 =    180.00000000 DEGREE
************************************************************************************************************************


 *************************************************************
 * Values of the primitive constraints                       *
 *************************************************************
 BO0001   : Bond Length=  1.100000 / Angstrom  2.078699 / bohr
 BO0002   : Bond Length=  1.000000 / Angstrom  1.889726 / bohr
 AN0001   : Angle=      177.1530   / Degree    3.091903 / rad

 *******************************************
 * Values of the constraints   / au or rad *
 *******************************************
   Label        C         C0
 Cns001      2.078699  2.078699
 Cns002      1.889726  1.889726
 Cns003      3.091903  3.141593

  30  -289.80923985  -289.80869787     0.00054199  0.19941140  0.26462920  0.03505099  0.03806442  0.06428266  0.00112777    331.64

 Constraints section
ConstraintsConstraintsConstraintsConstraintsConstraintsConstraintsConstraintsConstraintsConstraintsConstraints
ConstraintsConstraintsConstraintsConstraintsConstraintsConstraintsConstraintsConstraintsConstraintsConstraints
Constraints                                                                                        Constraints
Constraints                                 C O N S T R A I N T S                                  Constraints
Constraints                                                                                        Constraints

************************************************************************************************************************
BO0001 = BOND       H10   C5
BO0002 = BOND       H10   C17
AN0001 = ANGLE      C5    H10   C17
VALUES
BO0001 =      1.10000000 ANGSTROM
BO0002 =      1.00000000 ANGSTROM
AN0001 =    180.00000000 DEGREE
************************************************************************************************************************


 *************************************************************
 * Values of the primitive constraints                       *
 *************************************************************
 BO0001   : Bond Length=  1.100000 / Angstrom  2.078699 / bohr
 BO0002   : Bond Length=  1.000000 / Angstrom  1.889726 / bohr
  Valence angle close to end in range of definition
 AN0001   : Angle=      179.9429   / Degree    3.140596 / rad

 *******************************************
 * Values of the constraints   / au or rad *
 *******************************************
   Label        C         C0
 Cns001      2.078699  2.078699
 Cns002      1.889726  1.889726
 Cns003      3.140596  3.141593

  31  -289.80869787  -289.80926219    -0.00056432  0.20143386  0.26514922  0.03511987  0.03757019  0.06517267  0.00114338    342.49

 Constraints section
ConstraintsConstraintsConstraintsConstraintsConstraintsConstraintsConstraintsConstraintsConstraintsConstraints
ConstraintsConstraintsConstraintsConstraintsConstraintsConstraintsConstraintsConstraintsConstraintsConstraints
Constraints                                                                                        Constraints
Constraints                                 C O N S T R A I N T S                                  Constraints
Constraints                                                                                        Constraints

************************************************************************************************************************
BO0001 = BOND       H10   C5
BO0002 = BOND       H10   C17
AN0001 = ANGLE      C5    H10   C17
VALUES
BO0001 =      1.10000000 ANGSTROM
BO0002 =      1.00000000 ANGSTROM
AN0001 =    180.00000000 DEGREE
************************************************************************************************************************


 *************************************************************
 * Values of the primitive constraints                       *
 *************************************************************
 BO0001   : Bond Length=  1.100000 / Angstrom  2.078699 / bohr
 BO0002   : Bond Length=  1.000000 / Angstrom  1.889726 / bohr
 AN0001   : Angle=      177.1819   / Degree    3.092407 / rad

 *******************************************
 * Values of the constraints   / au or rad *
 *******************************************
   Label        C         C0
 Cns001      2.078699  2.078699
 Cns002      1.889726  1.889726
 Cns003      3.092407  3.141593

[...]
   11      0.189D-05      0.393D-06      -290.16646915    849.750641    0.54191    0.30756    1.57182    9     32.7    396.3
   12      0.853D-06      0.205D-06      -290.16646916    849.750797    0.54192    0.30756    1.57180    9     31.6    427.8
   13      0.795D-06      0.120D-06      -290.16646917    849.750762    0.54191    0.30757    1.57178    9     30.2    458.1

 Final alpha occupancy:  28
 Final beta  occupancy:  27

 !UKS STATE  1.1 Energy              -290.166469168630
 Nuclear energy                       298.01334503
 One-electron energy                 -979.94239735
 Two-electron energy                  424.87538079
 Density functional                   -33.11279764     PBEX=-41.78444711 PBEC= -1.77446230
 Virial quotient                       -1.00339949
 !UKS STATE  1.1 Dipole moment          0.54191400     0.30757005     1.57178404
 Dipole moment /Debye                   1.37731778     0.78171388     3.99481488

 Orbital energies for positive spin:

         1.1          2.1          3.1          4.1          5.1          6.1          7.1          8.1          9.1         10.1
    -14.380561   -10.264896   -10.255171   -10.245156   -10.230865   -10.223766   -10.222787    -0.936445    -0.876267    -0.801617

        11.1         12.1         13.1         14.1         15.1         16.1         17.1         18.1         19.1         20.1
     -0.759332    -0.670048    -0.641567    -0.563284    -0.505750    -0.496716    -0.451878    -0.442002    -0.427043    -0.397823

        21.1         22.1         23.1         24.1         25.1         26.1         27.1         28.1         29.1         30.1
     -0.394832    -0.383577    -0.366906    -0.358040    -0.354869    -0.350307    -0.346036    -0.232534     0.012382     0.022267

 Orbital energies for negative spin:

         1.1          2.1          3.1          4.1          5.1          6.1          7.1          8.1          9.1         10.1
    -14.378456   -10.255275   -10.253067   -10.234928   -10.230744   -10.223660   -10.222797    -0.923966    -0.864598    -0.785006

        11.1         12.1         13.1         14.1         15.1         16.1         17.1         18.1         19.1         20.1
     -0.752607    -0.664981    -0.628933    -0.549945    -0.501248    -0.492131    -0.449743    -0.440812    -0.423915    -0.393812

        21.1         22.1         23.1         24.1         25.1         26.1         27.1         28.1         29.1         30.1
     -0.383788    -0.378807    -0.363132    -0.353825    -0.352049    -0.344610    -0.334815    -0.092647     0.027190     0.035225


 HOMO     28.1    -0.232534 =      -6.3276eV
 LUMO    -28.1    -0.092647 =      -2.5211eV
 LUMO-HOMO         0.139887 =       3.8065eV

 EXPECTATION VALUE OF S**2:             0.75852525

 Occupation number threshold for pseudo-canonical orbitals: 1.9990 (occupied), 0.0010 (virtual)

 Number of pseudo-canonical occupied orbitals per symmetry:   25
 Number of active natural orbitals per symmetry:               5

 Natural orbitals saved to record    2204.2 (Orbital set 3)

 Orbital spaces for UNO-CAS (Min. occupation: 0.020  Max. occupation: 1.980):

 Closed:       27
 Active:        1


 **********************************************************************************************************************************
 DATASETS  * FILE   NREC   LENGTH (MB)   RECORD NAMES
              1      19       35.46       500      610      700      900      950      970     1001      129      960     1100   
                                          VAR    BASINP    GEOM    SYMINP    ZMAT    AOBASIS   BASIS     P2S    ABASIS      S 
                                         1400     1410     1200     1210     1080     1600     1650     1700     1800   
                                           T        V       H0       H01     AOSYM     SMH    MOLCAS    OPER     GRID   

              2      13       27.90       700     1000      520     2100     1800     2200      520(1)  2201      520(2)  2202   
                                         GEOM     BASIS   MCVARS     RHF     GRID      UKS    MCVARS     UKS    MCVARS     UKS  
                                         1001     2203     2204   
                                         BASIS     UKS      UKS  

 PROGRAMS   *        TOTAL    DF-UKS    DF-UKS       INT    DF-UKS      OPTG    DF-UKS      OPTG    DF-UKS     DF-HF       INT
 CPU TIMES  *      5473.93    458.14     15.97      0.24      8.09   4356.92     72.57    543.16      8.81      9.58      0.31
 REAL TIME  *      5504.85 SEC
 DISK USED  *        89.52 MB
 **********************************************************************************************************************************

 Density functional group PBE0=PBEX+PBEC
 Functional: PBEX(Automatically generated (new) PBEX)                          Gradient terms: 1
 Functional: PBEC(Automatically generated (new) PBEC)                          Gradient terms: 1
 Use libxcgrid:  F
 Use grid at  1800.2


 Exact exchange will be calculated, factor:  0.2500

 Functional: PBEX                      Factor:  0.7500
 Functional: PBEC                      Factor:  1.0000

  234265 words reserved for DFT integration

 PROGRAM * UKS-SCF (Unrestricted Kohn-Sham)     Authors: W. Meyer, H.-J. Werner, P.J. Knowles, 1993

 NUMBER OF ELECTRONS:      28+   27-    SPACE SYMMETRY=1    SPIN SYMMETRY: Doublet 
 CONVERGENCE THRESHOLDS:    1.00E-06 (Density)    1.00E-06 (Energy)
 INTEGRAL THRESHOLDS:       1.00E-11 (Initial)    1.00E-11 (Final)
 MAX. NUMBER OF ITERATIONS:       60
 INTERPOLATION TYPE:            DIIS
 INTERPOLATION STEPS:              2 (START)      1 (STEP)
 LEVEL SHIFTS:                 -0.20 (ALPHA)  -0.20 (BETA) 



 Use fine grid record 1800.2 for energy threshold  1.0D-06
 Molecular orbitals read from record     2204.2  Type=UKS/ALPHA (state 1.1)
 Molecular orbitals read from record     2204.2  Type=UKS/BETA (state 1.1)

 Molecular orbital dump at record        2205.2

 Initial alpha occupation  28
 Initial beta  occupation  27

 Direct Fock-matrix evaluation.        Author: H.-J. Werner (1996)

 Integral Threshold:                  0.1D-10

 ITERATION   DDIFF            GRAD            ENERGY        2-EL.EN.            DIPOLE MOMENTS         DIIS   CPU(IT)  CPU(TOT)
    1      0.000D+00      0.000D+00      -290.16623094    849.751238    0.54191    0.30757    1.57178    0     40.7     40.8
    2      0.382D-04      0.735D-05      -290.16623218    849.747770    0.54189    0.30763    1.57181    1     37.9     78.7
    3      0.129D-04      0.124D-05      -290.16623225    849.748718    0.54185    0.30763    1.57178    2     37.4    116.0
    4      0.529D-05      0.231D-06      -290.16623225    849.748473    0.54184    0.30765    1.57180    3     36.5    152.6
    5      0.140D-05      0.907D-07      -290.16623225    849.748812    0.54181    0.30761    1.57178    4     34.9    187.5
    6      0.372D-06      0.672D-07      -290.16623225    849.748759    0.54184    0.30764    1.57180    5     33.9    221.4
    7      0.152D-06      0.399D-07      -290.16623225    849.748721    0.54183    0.30763    1.57179    6     32.4    253.9

 Final alpha occupancy:  28
 Final beta  occupancy:  27

 !UKS STATE  1.1 Energy              -290.166232254570
 Nuclear energy                       298.01334503
 One-electron energy                 -979.94141136
 Two-electron energy                  424.87436048
 Density functional                   -33.11252641     PBEX=-41.78402964 PBEC= -1.77450418
 Virial quotient                       -1.00341237
 !UKS STATE  1.1 Dipole moment          0.54182616     0.30762551     1.57179278
 Dipole moment /Debye                   1.37709454     0.78185485     3.99483709

 Orbital energies for positive spin:

         1.1          2.1          3.1          4.1          5.1          6.1          7.1          8.1          9.1         10.1
    -14.380587   -10.264939   -10.255200   -10.245215   -10.230888   -10.223817   -10.222835    -0.936437    -0.876272    -0.801624

        11.1         12.1         13.1         14.1         15.1         16.1         17.1         18.1         19.1         20.1
     -0.759339    -0.670053    -0.641571    -0.563286    -0.505757    -0.496721    -0.451886    -0.442006    -0.427055    -0.397808

        21.1         22.1         23.1         24.1         25.1         26.1         27.1         28.1         29.1         30.1
     -0.394838    -0.383575    -0.366908    -0.358046    -0.354873    -0.350309    -0.346034    -0.232548     0.012365     0.022232

 Orbital energies for negative spin:

         1.1          2.1          3.1          4.1          5.1          6.1          7.1          8.1          9.1         10.1
    -14.378485   -10.255304   -10.253111   -10.234984   -10.230767   -10.223711   -10.222845    -0.923959    -0.864604    -0.785013

        11.1         12.1         13.1         14.1         15.1         16.1         17.1         18.1         19.1         20.1
     -0.752615    -0.664985    -0.628937    -0.549948    -0.501254    -0.492135    -0.449751    -0.440816    -0.423927    -0.393818

        21.1         22.1         23.1         24.1         25.1         26.1         27.1         28.1         29.1         30.1
     -0.383776    -0.378794    -0.363136    -0.353832    -0.352052    -0.344620    -0.334815    -0.092660     0.027149     0.035207


 HOMO     28.1    -0.232548 =      -6.3279eV
 LUMO    -28.1    -0.092660 =      -2.5214eV
 LUMO-HOMO         0.139888 =       3.8065eV

 EXPECTATION VALUE OF S**2:             0.75853183

 Occupation number threshold for pseudo-canonical orbitals: 1.9990 (occupied), 0.0010 (virtual)

 Number of pseudo-canonical occupied orbitals per symmetry:   25
 Number of active natural orbitals per symmetry:               5

 Natural orbitals saved to record    2205.2 (Orbital set 3)

 Orbital spaces for UNO-CAS (Min. occupation: 0.020  Max. occupation: 1.980):

 Closed:       27
 Active:        1


 **********************************************************************************************************************************
 DATASETS  * FILE   NREC   LENGTH (MB)   RECORD NAMES
              1      19       35.46       500      610      700      900      950      970     1001      129      960     1100   
                                          VAR    BASINP    GEOM    SYMINP    ZMAT    AOBASIS   BASIS     P2S    ABASIS      S 
                                         1400     1410     1200     1210     1080     1600     1650     1700     1800   
                                           T        V       H0       H01     AOSYM     SMH    MOLCAS    OPER     GRID   

              2      14       33.75       700     1000      520     2100     1800     2200      520(1)  2201      520(2)  2202   
                                         GEOM     BASIS   MCVARS     RHF     GRID      UKS    MCVARS     UKS    MCVARS     UKS  
                                         1001     2203     2204     2205   
                                         BASIS     UKS      UKS      UKS  

 PROGRAMS   *        TOTAL   UKS-SCF    DF-UKS    DF-UKS       INT    DF-UKS      OPTG    DF-UKS      OPTG    DF-UKS     DF-HF
 CPU TIMES  *      5727.86    253.93    458.14     15.97      0.24      8.09   4356.92     72.57    543.16      8.81      9.58
 REAL TIME  *      5759.41 SEC
 DISK USED  *        91.12 MB
 **********************************************************************************************************************************

 Density functional group B3LYP=B88+DIRAC+LYP+VWN5
 Functional: B88(Automatically generated (new) B88)                            Gradient terms: 1
 Functional: DIRAC(Automatically generated (new) DIRAC)                        Gradient terms: 0
 Functional: LYP(Automatically generated (new) LYP)                            Gradient terms: 1
 Functional: VWN5(Automatically generated (new) VWN5)                          Gradient terms: 0
 Use libxcgrid:  F
 Use grid at  1800.2


 Exact exchange will be calculated, factor:  0.2000

 Functional: B88                       Factor:  0.7200
 Functional: DIRAC                     Factor:  0.0800
 Functional: LYP                       Factor:  0.8100
 Functional: VWN5                      Factor:  0.1900

  234265 words reserved for DFT integration

 PROGRAM * UKS-SCF (Unrestricted Kohn-Sham)     Authors: W. Meyer, H.-J. Werner, P.J. Knowles, 1993

 NUMBER OF ELECTRONS:      28+   27-    SPACE SYMMETRY=1    SPIN SYMMETRY: Doublet 
 CONVERGENCE THRESHOLDS:    1.00E-06 (Density)    1.00E-06 (Energy)
 INTEGRAL THRESHOLDS:       1.00E-11 (Initial)    1.00E-11 (Final)
 MAX. NUMBER OF ITERATIONS:       60
 INTERPOLATION TYPE:            DIIS
 INTERPOLATION STEPS:              2 (START)      1 (STEP)
 LEVEL SHIFTS:                 -0.20 (ALPHA)  -0.20 (BETA) 



 Use fine grid record 1800.2 for energy threshold  1.0D-06
 Molecular orbitals read from record     2205.2  Type=UKS/ALPHA (state 1.1)
 Molecular orbitals read from record     2205.2  Type=UKS/BETA (state 1.1)

 Molecular orbital dump at record        2206.2

 Initial alpha occupation  28
 Initial beta  occupation  27

 Direct Fock-matrix evaluation.        Author: H.-J. Werner (1996)

 Integral Threshold:                  0.1D-10

 ITERATION   DDIFF            GRAD            ENERGY        2-EL.EN.            DIPOLE MOMENTS         DIIS   CPU(IT)  CPU(TOT)
    1      0.000D+00      0.000D+00      -290.33496037    853.942956    0.54183    0.30763    1.57179    0     41.1     41.1
    2      0.132D-02      0.394D-03      -290.33900750    854.294754    0.54676    0.31342    1.57984    1     39.9     81.0
    3      0.211D-03      0.622D-04      -290.33919738    853.963597    0.53637    0.29891    1.56717    2     39.2    120.2
    4      0.103D-03      0.309D-04      -290.33922909    853.979779    0.54555    0.31246    1.57637    3     38.9    159.1
    5      0.469D-04      0.154D-04      -290.33923847    854.001652    0.53995    0.30304    1.57263    4     38.2    197.3
    6      0.304D-04      0.758D-05      -290.33924158    853.974566    0.54145    0.30474    1.57477    5     37.5    234.8
    7      0.144D-04      0.230D-05      -290.33924255    853.980619    0.54131    0.30433    1.57522    6     35.9    270.7
    8      0.102D-04      0.141D-05      -290.33924313    853.977300    0.54127    0.30377    1.57596    7     35.6    306.3
    9      0.570D-05      0.838D-06      -290.33924337    853.977338    0.54124    0.30352    1.57629    8     36.4    342.7
   10      0.155D-05      0.432D-06      -290.33924343    853.977264    0.54123    0.30346    1.57649    8     35.8    378.4
   11      0.147D-05      0.198D-06      -290.33924344    853.977300    0.54120    0.30340    1.57648    9     35.1    413.6
   12      0.957D-06      0.858D-07      -290.33924344    853.977270    0.54119    0.30341    1.57644    9     34.5    448.1
   13      0.292D-06      0.319D-07      -290.33924344    853.977248    0.54119    0.30341    1.57644    9     33.4    481.5

 Final alpha occupancy:  28
 Final beta  occupancy:  27

 !UKS STATE  1.1 Energy              -290.339243442248
 Nuclear energy                       298.01334503
 One-electron energy                 -979.93680707
 Two-electron energy                  426.98862378
 Density functional                   -35.40440518     B88=-42.05362361 DIRAC=-37.83314875 LYP= -1.78122153 VWN5= -3.45449920
 Virial quotient                       -1.00294630
 !UKS STATE  1.1 Dipole moment          0.54119198     0.30341376     1.57643855
 Dipole moment /Debye                   1.37548271     0.77115035     4.00664468

 Orbital energies for positive spin:

         1.1          2.1          3.1          4.1          5.1          6.1          7.1          8.1          9.1         10.1
    -14.312465   -10.211456   -10.200673   -10.192766   -10.177624   -10.171771   -10.170831    -0.910299    -0.850916    -0.778570

        11.1         12.1         13.1         14.1         15.1         16.1         17.1         18.1         19.1         20.1
     -0.736873    -0.650221    -0.622632    -0.546616    -0.490653    -0.482230    -0.437976    -0.428807    -0.414752    -0.383644

        21.1         22.1         23.1         24.1         25.1         26.1         27.1         28.1         29.1         30.1
     -0.382213    -0.372386    -0.355578    -0.346968    -0.343590    -0.337812    -0.334533    -0.220691     0.005455     0.014970

 Orbital energies for negative spin:

         1.1          2.1          3.1          4.1          5.1          6.1          7.1          8.1          9.1         10.1
    -14.310137   -10.200752   -10.200414   -10.183226   -10.177513   -10.171673   -10.170838    -0.898355    -0.839886    -0.763214

        11.1         12.1         13.1         14.1         15.1         16.1         17.1         18.1         19.1         20.1
     -0.731199    -0.645445    -0.611525    -0.534900    -0.486598    -0.477969    -0.436076    -0.427782    -0.411919    -0.382398

        21.1         22.1         23.1         24.1         25.1         26.1         27.1         28.1         29.1         30.1
     -0.371777    -0.365874    -0.352244    -0.343819    -0.341068    -0.332247    -0.322913    -0.102211     0.017702     0.026662


 HOMO     28.1    -0.220691 =      -6.0053eV
 LUMO    -28.1    -0.102211 =      -2.7813eV
 LUMO-HOMO         0.118481 =       3.2240eV

 EXPECTATION VALUE OF S**2:             0.75653515

 Occupation number threshold for pseudo-canonical orbitals: 1.9990 (occupied), 0.0010 (virtual)

 Number of pseudo-canonical occupied orbitals per symmetry:   26
 Number of active natural orbitals per symmetry:               3

 Natural orbitals saved to record    2206.2 (Orbital set 3)

 Orbital spaces for UNO-CAS (Min. occupation: 0.020  Max. occupation: 1.980):

 Closed:       27
 Active:        1


 **********************************************************************************************************************************
 DATASETS  * FILE   NREC   LENGTH (MB)   RECORD NAMES
              1      19       35.46       500      610      700      900      950      970     1001      129      960     1100   
                                          VAR    BASINP    GEOM    SYMINP    ZMAT    AOBASIS   BASIS     P2S    ABASIS      S 
                                         1400     1410     1200     1210     1080     1600     1650     1700     1800   
                                           T        V       H0       H01     AOSYM     SMH    MOLCAS    OPER     GRID   

              2      15       39.61       700     1000      520     2100     1800     2200      520(1)  2201      520(2)  2202   
                                         GEOM     BASIS   MCVARS     RHF     GRID      UKS    MCVARS     UKS    MCVARS     UKS  
                                         1001     2203     2204     2205     2206   
                                         BASIS     UKS      UKS      UKS      UKS  

 PROGRAMS   *        TOTAL   UKS-SCF   UKS-SCF    DF-UKS    DF-UKS       INT    DF-UKS      OPTG    DF-UKS      OPTG    DF-UKS
 CPU TIMES  *      6209.43    481.56    253.93    458.14     15.97      0.24      8.09   4356.92     72.57    543.16      8.81
 REAL TIME  *      6241.66 SEC
 DISK USED  *        99.66 MB
 **********************************************************************************************************************************

 UB3LYP/TZVP//CF-UKS/SVP energy=   -290.339243442248

         UKS-SCF         UKS-SCF          DF-UKS          DF-UKS          DF-UKS    OPTG(DF-UKS)          DF-UKS    OPTG(DF-UKS)
   -290.33924344   -290.16623225   -290.16646917   -290.13222427   -289.80731197   -289.84860926   -289.84724992   -289.80874320
 **********************************************************************************************************************************
 Molpro calculation terminated with 2 warning(s)
