
 Primary working directories    : /mnt/storage/home/lb17101/scratch/1377547/molpro.rCgxDtnVHC
 Secondary working directories  : /mnt/storage/home/lb17101/scratch/1377547/molpro.rCgxDtnVHC
 Wavefunction directory         : /mnt/storage/home/lb17101/optimizations/10/
 Main file repository           : /mnt/storage/home/lb17101/optimizations/10/

 id        : simonbennie

 Nodes                   nprocs
 compute074.bc4.acrc.priv    1

 Using customized tuning parameters: mindgm=1; mindgv=20; mindgc=4; mindgr=1; noblas=0; minvec=7
 default implementation of scratch files=df  


 Variables initialized (924), CPU time= 0.01 sec
 memory,536,m
 
 geomtyp=xyz
 
 nosym
 noorient
 gdirect
 angstrom
 
 geometry=input.xyz
 Including file /mnt/storage/home/lb17101/optimizations/10/input.xyz
 
 set,charge=0
 
 basis=svp
 df-hf
 {cf-uks,pbe;}
 {optg,method=slrf,maxiter=50;
 constraint,1.100,angstrom,bond,atoms=[H10,C5]
 constraint,1.800,angstrom,bond,atoms=[H10,C17]
 constraint,180,deg,angle,atoms=[C5,H10,C17]
 {slopt;}}
 {cf-uks,pbe0;}
 {optg,method=slrf,maxiter=50;
 constraint,1.100,angstrom,bond,atoms=[H10,C5]
 constraint,1.800,angstrom,bond,atoms=[H10,C17]
 constraint,180,deg,angle,atoms=[C5,H10,C17]
 {slopt;}}
 {cf-uks,pbe;}
 basis=tzvp
 {cf-uks,pbe;}
 {cf-uks,pbe0;}
 {uks,pbe0;}
 {uks,b3lyp;}
 Commands  initialized (760), CPU time= 0.01 sec, 616 directives.
 Default parameters read. Elapsed time= 0.04 sec

 Checking input...
 Passed
1


                                         ***  PROGRAM SYSTEM MOLPRO  ***
                                       Copyright, TTI GmbH Stuttgart, 2015
                                    Version 2018.1 linked Oct 16 2018 14:32:03


 **********************************************************************************************************************************
 LABEL *                                                                                 
  64 bit serial version                                                                  DATE: 09-Nov-18          TIME: 13:17:25  
 **********************************************************************************************************************************

 SHA1:             d673ad554fd0a1ae99daa449513f8b88cca0f763
 **********************************************************************************************************************************
 SETTING GEOMTYP        =    XYZ

 Variable memory set to  536000000 words,  buffer space 

 ZSYMEL=NOSYM
 ZUNIT=ANG

 SETTING CHARGE         =     0.00000000D+00                                  
 SETTING BASIS          =    SVP


 Recomputing integrals since basis changed


 Using spherical harmonics

 Library entry C      S def2-SVP             selected for orbital group  1
 Library entry C      P def2-SVP             selected for orbital group  1
 Library entry C      D def2-SVP             selected for orbital group  1
 Library entry H      S def2-SVP             selected for orbital group  2
 Library entry H      P def2-SVP             selected for orbital group  2
 Library entry N      S def2-SVP             selected for orbital group  8
 Library entry N      P def2-SVP             selected for orbital group  8
 Library entry N      D def2-SVP             selected for orbital group  8


 PROGRAM * SEWARD (Integral evaluation for generally contracted gaussian basis sets)     Author: Roland Lindh, 1990

 Geometry written to block  1 of record 700


 Point group  C1  



 ATOMIC COORDINATES

 NR  ATOM    CHARGE       X              Y              Z

   1  C0      6.00  -15.641370747    4.440507963   -0.049754099
   2  C1      6.00  -12.737339891    4.465637486   -0.140167375
   3  H2      1.00  -16.452984854    4.362009759   -1.983315422
   4  H3      1.00  -16.391562141    6.159377510    0.885856613
   5  H4      1.00  -16.350492719    2.775164051    1.006098957
   6  C5      6.00  -11.740713253    6.806784179   -1.363174032
   7  C6      6.00  -11.691868632    2.010595906   -1.332047513
   8  H7      1.00  -12.059131143    4.477675291    1.873635711
   9  H8      1.00  -12.816334048    8.587533046   -1.256908787
  10  H9      1.00   -9.762548968    6.938438663   -1.991254644
  11  H10     1.00  -12.760792883    6.054981588   -6.888684292
  12  H11     1.00  -12.328168648    1.913494793   -3.335824861
  13  H12     1.00  -12.605734446    0.383795421   -0.365812386
  14  C13     6.00   -8.821789553    1.708632436   -1.189530685
  15  H14     1.00   -7.807109511    3.177308591   -2.288390688
  16  H15     1.00   -8.219027992   -0.147593098   -1.950649422
  17  H16     1.00   -8.140726956    1.825765183    0.791880384
  18  C17     6.00  -12.982218668    5.632782742   -8.912040694
  19  N18     7.00  -13.226364779    5.162744798  -11.053985496

 Bond lengths in Bohr (Angstrom)

 1-2  2.905546638  1-3  2.098461058  1-4  2.095869044  1-5  2.095483235  2-6  2.823114907
     ( 1.537549066)     ( 1.110457770)     ( 1.109086135)     ( 1.108881974)     ( 1.493928072)

  2- 7  2.922467721   2- 8  2.124974090   6- 9  2.083103196   6-10  2.079651918   7-12  2.104621106
       ( 1.546503317)       ( 1.124487862)       ( 1.102330739)       ( 1.100504402)       ( 1.113717527)

  7-13  2.101247455   7-14  2.889437125  11-18  2.078762221  14-15  2.096205750  14-16  2.094802249
       ( 1.111932268)       ( 1.529024279)       ( 1.100033595)       ( 1.109264312)       ( 1.108521612)

 14-17  2.098465193  18-19  2.206461087
       ( 1.110459958)       ( 1.167608924)

 Bond angles

  1-2-6  111.93115943   1-2-7  111.28297678   1-2-8  106.83125183   2-1-3  110.99066727

  2- 1- 4  111.37985148   2- 1- 5  111.14817415   2- 6- 9  120.29991886   2- 6-10  121.27389130

  2- 7-12  108.59604258   2- 7-13  107.89393921   2- 7-14  115.02504750   3- 1- 4  107.67204096

  3-1-5  107.67777862   4-1-5  107.80128520   6-2-7  113.18328669   6-2-8  107.04834525

  7- 2- 8  106.08604597   7-14-15  112.44125475   7-14-16  111.13069525   7-14-17  111.29175153

  9- 6-10  116.90071828  11-18-19  179.36634029  12- 7-13  105.69971320  12- 7-14  110.02606719

 13- 7-14  109.17241960  15-14-16  106.92329474  15-14-17  107.38331531  16-14-17  107.40616309

 NUCLEAR CHARGE:                   55
 NUMBER OF PRIMITIVE AOS:         259
 NUMBER OF SYMMETRY AOS:          252
 NUMBER OF CONTRACTIONS:          158   (  158A   )
 NUMBER OF CORE ORBITALS:           7   (    7A   )
 NUMBER OF VALENCE ORBITALS:       40   (   40A   )


 NUCLEAR REPULSION ENERGY  265.52795116


 Eigenvalues of metric

         1 0.183E-02 0.359E-02 0.451E-02 0.603E-02 0.838E-02 0.182E-01 0.195E-01 0.203E-01


 OPERATOR DM      FOR CENTER  0  COORDINATES:    0.000000    0.000000    0.000000


 **********************************************************************************************************************************
 DATASETS  * FILE   NREC   LENGTH (MB)   RECORD NAMES
              1      18       31.21       500      610      700      900      950      970     1000      129      960     1100   
                                          VAR    BASINP    GEOM    SYMINP    ZMAT    AOBASIS   BASIS     P2S    ABASIS      S 
                                         1400     1410     1200     1210     1080     1600     1650     1700   
                                           T        V       H0       H01     AOSYM     SMH    MOLCAS    OPER   

 PROGRAMS   *        TOTAL       INT
 CPU TIMES  *         0.42      0.29
 REAL TIME  *         1.44 SEC
 DISK USED  *        31.83 MB
 **********************************************************************************************************************************


 PROGRAM * RHF-SCF (OPEN SHELL)       Authors: W. Meyer, H.-J. Werner


 NUMBER OF ELECTRONS:      28+   27-    SPACE SYMMETRY=1    SPIN SYMMETRY: Doublet 
 CONVERGENCE THRESHOLDS:    1.00E-06 (Density)    1.00E-07 (Energy)
 INTEGRAL THRESHOLDS:       1.00E-11 (Initial)    1.00E-11 (Final)
 MAX. NUMBER OF ITERATIONS:       60
 INTERPOLATION TYPE:            DIIS
 INTERPOLATION STEPS:              2 (START)      1 (STEP)
 LEVEL SHIFTS:                 -0.60 (CLOSED) -0.30 (OPEN) 




 Basis set DEF2-SVP/JKFIT generated.     Number of basis functions:   560 

 Orbital guess generated from atomic densities. Full valence occupancy:   28
 Using density fitting in orbital guess

 Coulomb and exchange fitting
 Thresholds for fitting:       THRAO_COUL= 1.0D-14    THRAO_EXCH= 1.0D-12    THRMO= 1.0D-11    THRPROD= 1.0D-11    THRASM= 1.0D-11
                               THR2HLF=    1.0D-11

 Molecular orbital dump at record        2100.2

 Initial alpha occupancy:  28
 Initial beta  occupancy:  27
 Wave function symmetry:    1

 ITERATION   DDIFF            GRAD            ENERGY        2-EL.EN.            DIPOLE MOMENTS         DIIS   CPU(IT)  CPU(TOT)  ORB.
    1      0.000D+00      0.000D+00      -288.25645383    722.794989    0.18962    0.18373    2.07818    0      0.7      1.4     start
    2      0.000D+00      0.401D-02      -288.33272397    720.251142    0.15608    0.11928    1.55248    1      0.6      2.1     diag,B
    3      0.299D-02      0.157D-02      -288.34776947    720.373121    0.17027    0.15909    1.58025    2      0.7      2.7     diag,B
    4      0.149D-02      0.746D-03      -288.35372036    720.335213    0.17121    0.16652    1.51448    3      0.7      3.4     diag,B
    5      0.126D-02      0.205D-03      -288.35432294    720.307194    0.17304    0.17513    1.50618    4      0.6      4.0     diag,B
    6      0.483D-03      0.732D-04      -288.35441618    720.278524    0.17353    0.17879    1.50188    5      0.7      4.7     diag,B
    7      0.216D-03      0.221D-04      -288.35442487    720.270865    0.17353    0.17940    1.50022    6      0.7      5.4     fixocc
    8      0.691D-04      0.674D-05      -288.35442573    720.270536    0.17343    0.17928    1.49946    7      0.6      6.0     diag,B
    9      0.255D-04      0.221D-05      -288.35442585    720.270735    0.17338    0.17914    1.49927    8      0.6      6.7     diag,B
   10      0.952D-05      0.690D-06      -288.35442586    720.270891    0.17336    0.17910    1.49924    9      0.6      7.3     orth
   11      0.274D-05      0.291D-06      -288.35442586    720.270887    0.17335    0.17908    1.49924    9      0.7      7.9     diag,B
   12      0.139D-05      0.107D-06      -288.35442586    720.270874    0.17335    0.17908    1.49923    9      0.7      8.6     diag,B
   13      0.568D-06      0.380D-07      -288.35442586    720.270869    0.17335    0.17908    1.49923    0      0.7      9.3     orth

 Final alpha occupancy:  28
 Final beta  occupancy:  27

 !RHF STATE  1.1 Energy              -288.354425860902
 Nuclear energy                       265.52795116
 One-electron energy                 -914.01781158
 Two-electron energy                  360.13543455
 Virial quotient                       -1.00689725
 !RHF STATE  1.1 Dipole moment          0.17334716     0.17907993     1.49923217
 Dipole moment /Debye                   0.44057568     0.45514596     3.81041850

 Orbital energies:

         1.1          2.1          3.1          4.1          5.1          6.1          7.1          8.1          9.1         10.1
    -15.598977   -11.299413   -11.247726   -11.243403   -11.239307   -11.236487   -11.234455    -1.211737    -1.090196    -0.989546

        11.1         12.1         13.1         14.1         15.1         16.1         17.1         18.1         19.1         20.1
     -0.906750    -0.849458    -0.786725    -0.753575    -0.640503    -0.627685    -0.590293    -0.578661    -0.571756    -0.553396

        21.1         22.1         23.1         24.1         25.1         26.1         27.1         28.1         29.1         30.1
     -0.523029    -0.509800    -0.487434    -0.487111    -0.484821    -0.476290    -0.468021    -0.373833     0.152209     0.172455


 HOMO     28.1    -0.373833 =     -10.1725eV
 LUMO     29.1     0.152209 =       4.1418eV
 LUMO-HOMO         0.526042 =      14.3143eV


 **********************************************************************************************************************************
 DATASETS  * FILE   NREC   LENGTH (MB)   RECORD NAMES
              1      18       31.21       500      610      700      900      950      970     1000      129      960     1100   
                                          VAR    BASINP    GEOM    SYMINP    ZMAT    AOBASIS   BASIS     P2S    ABASIS      S 
                                         1400     1410     1200     1210     1080     1600     1650     1700   
                                           T        V       H0       H01     AOSYM     SMH    MOLCAS    OPER   

              2       4        3.88       700     1000      520     2100   
                                         GEOM     BASIS   MCVARS     RHF  

 PROGRAMS   *        TOTAL     DF-HF       INT
 CPU TIMES  *         9.70      9.29      0.29
 REAL TIME  *        12.45 SEC
 DISK USED  *        68.27 MB
 **********************************************************************************************************************************

 Density functional group PBE=PBEX+PBEC
 Functional: PBEX(Automatically generated (new) PBEX)                          Gradient terms: 1
 Functional: PBEC(Automatically generated (new) PBEC)                          Gradient terms: 1
 Use libxcgrid:  F
 Use grid at  1800.2

 Functional: PBEX                      Factor:  1.0000
 Functional: PBEC                      Factor:  1.0000

 Generated new metagrid on record  1800.2 with target accuracy 1.0D-06 and 64116 points in CPU time    1.2
 Computed new grid on record 1800.1 in CPU time    1.4
  129907 words reserved for DFT integration

 PROGRAM * UKS-SCF (Unrestricted Kohn-Sham)     Authors: W. Meyer, H.-J. Werner, P.J. Knowles, 1993

 NUMBER OF ELECTRONS:      28+   27-    SPACE SYMMETRY=1    SPIN SYMMETRY: Doublet 
 CONVERGENCE THRESHOLDS:    1.00E-06 (Density)    1.00E-06 (Energy)
 INTEGRAL THRESHOLDS:       1.00E-11 (Initial)    1.00E-11 (Final)
 MAX. NUMBER OF ITERATIONS:       60
 INTERPOLATION TYPE:            DIIS
 INTERPOLATION STEPS:              2 (START)      1 (STEP)
 LEVEL SHIFTS:                 -0.20 (ALPHA)  -0.20 (BETA) 



 Use fine grid record 1800.2 for energy threshold  1.0D-06

 Basis set DEF2-SVP/JFIT generated.      Number of basis functions:   475 
 Coulomb fitting
 Screening thresholds:    THRAO_COUL= 1.0D-14    THRAO= 1.0D-12    THROV= 1.0D-12

 Reserved 6 MW to cache 100.0% of significant integrals. CPU: 0.3 sec

 Molecular orbitals read from record     2100.2  Type=RHF/CANONICAL (state 1.1)

 Molecular orbital dump at record        2200.2

 Initial alpha occupation  28
 Initial beta  occupation  27

 ITERATION    DDIFF          GRAD             ENERGY        2-EL.EN.            DIPOLE MOMENTS         DIIS  CPU(IT) CPU(TOT)
    1      0.000D+00      0.000D+00      -289.85713932    803.747086    0.17335    0.17908    1.49923    0      0.5      0.8
    2      0.411D-02      0.217D-02      -289.89796926    806.756483    0.15414    0.12370    1.39917    1      0.5      1.4
    3      0.133D-02      0.435D-03      -289.90136315    805.382566    0.15121    0.11352    1.38265    2      0.5      1.9
    4      0.689D-03      0.179D-03      -289.90220015    805.890412    0.14684    0.09623    1.36471    3      0.5      2.4
    5      0.274D-03      0.759D-04      -289.90230653    805.825909    0.15160    0.10183    1.40752    4      0.5      3.0
    6      0.124D-03      0.794D-04      -289.90238831    805.763459    0.14856    0.09378    1.38210    5      0.5      3.5
    7      0.752D-04      0.200D-04      -289.90240258    805.776039    0.14924    0.09393    1.38971    6      0.5      4.0
    8      0.278D-04      0.770D-05      -289.90240492    805.777096    0.14922    0.09268    1.39049    7      0.5      4.6
    9      0.116D-04      0.258D-05      -289.90240522    805.777810    0.14932    0.09290    1.39089    8      0.5      5.1
   10      0.447D-05      0.118D-05      -289.90240526    805.776928    0.14932    0.09277    1.39116    8      0.5      5.6
   11      0.126D-05      0.265D-06      -289.90240527    805.776994    0.14932    0.09275    1.39119    8      0.5      6.2
   12      0.302D-06      0.116D-06      -289.90240527    805.777045    0.14932    0.09277    1.39118    8      0.5      6.7
   13      0.159D-06      0.578D-07      -289.90240527    805.777001    0.14932    0.09277    1.39119    7      0.5      7.3

 Final alpha occupancy:  28
 Final beta  occupancy:  27

 !UKS STATE  1.1 Energy              -289.902405266375
 Nuclear energy                       265.52795116
 One-electron energy                 -915.05336432
 Two-electron energy                  402.88850031
 Density functional                   -43.26549242     PBEX=-41.50794834 PBEC= -1.75754408
 Virial quotient                       -1.01207402
 !UKS STATE  1.1 Dipole moment          0.14932416     0.09276881     1.39118584
 Dipole moment /Debye                   0.37951930     0.23577934     3.53581010

 Orbital energies for positive spin:

         1.1          2.1          3.1          4.1          5.1          6.1          7.1          8.1          9.1         10.1
    -14.009341    -9.946098    -9.919312    -9.918534    -9.906280    -9.900443    -9.898445    -0.818899    -0.741910    -0.664369

        11.1         12.1         13.1         14.1         15.1         16.1         17.1         18.1         19.1         20.1
     -0.611917    -0.562408    -0.528967    -0.499305    -0.424594    -0.414627    -0.386898    -0.374491    -0.354350    -0.330846

        21.1         22.1         23.1         24.1         25.1         26.1         27.1         28.1         29.1         30.1
     -0.320372    -0.317255    -0.315641    -0.315498    -0.308238    -0.294814    -0.292682    -0.184519    -0.022294    -0.019275

 Orbital energies for negative spin:

         1.1          2.1          3.1          4.1          5.1          6.1          7.1          8.1          9.1         10.1
    -14.009338    -9.945938    -9.919214    -9.906287    -9.905846    -9.900190    -9.898466    -0.818823    -0.736845    -0.662007

        11.1         12.1         13.1         14.1         15.1         16.1         17.1         18.1         19.1         20.1
     -0.595945    -0.559059    -0.528234    -0.491758    -0.420197    -0.410081    -0.384630    -0.373367    -0.350193    -0.328897

        21.1         22.1         23.1         24.1         25.1         26.1         27.1         28.1         29.1         30.1
     -0.317669    -0.317143    -0.315473    -0.315390    -0.304102    -0.292342    -0.290218    -0.106515    -0.022043    -0.019103


 HOMO     28.1    -0.184519 =      -5.0210eV
 LUMO    -28.1    -0.106515 =      -2.8984eV
 LUMO-HOMO         0.078003 =       2.1226eV

 EXPECTATION VALUE OF S**2:             0.75335202

 Occupation number threshold for pseudo-canonical orbitals: 1.9990 (occupied), 0.0010 (virtual)

 Number of pseudo-canonical occupied orbitals per symmetry:   26
 Number of active natural orbitals per symmetry:               3

 Natural orbitals saved to record    2200.2 (Orbital set 3)

 Orbital spaces for UNO-CAS (Min. occupation: 0.020  Max. occupation: 1.980):

 Closed:       27
 Active:        1


 **********************************************************************************************************************************
 DATASETS  * FILE   NREC   LENGTH (MB)   RECORD NAMES
              1      19       33.26       500      610      700      900      950      970     1000      129      960     1100   
                                          VAR    BASINP    GEOM    SYMINP    ZMAT    AOBASIS   BASIS     P2S    ABASIS      S 
                                         1400     1410     1200     1210     1080     1600     1650     1700     1800   
                                           T        V       H0       H01     AOSYM     SMH    MOLCAS    OPER     GRID   

              2       6        7.61       700     1000      520     2100     1800     2200   
                                         GEOM     BASIS   MCVARS     RHF     GRID      UKS  

 PROGRAMS   *        TOTAL    DF-UKS     DF-HF       INT
 CPU TIMES  *        18.42      8.71      9.29      0.29
 REAL TIME  *        21.33 SEC
 DISK USED  *        68.27 MB
 **********************************************************************************************************************************


 PROGRAM * OPT (Geometry optimization)     Authors: F. Eckert and H.-J. Werner


 BFGS update of hessian


********** USER DEFINED INT/FIX/CONSTRAINTS ****************

List of primitive internal coordinates

     N      Name     Type   Natoms   Atom list

     1    Bo0001     Bond        2      H10  C5  
     2    Bo0002     Bond        2      H10  C17 
     3    An0001     Angle       3      C5   H10  C17 

List of user defined internal/fixed coordinates and constraints

- - - - - - - - - - - - - - - - - - - - - - - - - - - - - - - - - 
    N      Name   Type      Pname     Coeff       Value   Unit
- - - - - - - - - - - - - - - - - - - - - - - - - - - - - - - - - 
    1    Cns001    Con     Bo0001     1.000     1.10000 Angstrom
- - - - - - - - - - - - - - - - - - - - - - - - - - - - - - - - - 
    2    Cns002    Con     Bo0002     1.000     1.80000 Angstrom
- - - - - - - - - - - - - - - - - - - - - - - - - - - - - - - - - 
    3    Cns003    Con     An0001     1.000   180.00000   Degree
- - - - - - - - - - - - - - - - - - - - - - - - - - - - - - - - - 


******************************************************************



 *** Long output written to logfile /mnt/storage/home/lb17101/optimizations/10/10_1.10_1.80.log ***


 Geometry optimization using default procedure for command CF-UKS-SCF

 Geometry written to block  1 of record 700

 SLAPAF optimizer by R. Lindh and Ignacio F. Galvan entered

 Constraints section
ConstraintsConstraintsConstraintsConstraintsConstraintsConstraintsConstraintsConstraintsConstraintsConstraints
ConstraintsConstraintsConstraintsConstraintsConstraintsConstraintsConstraintsConstraintsConstraintsConstraints
Constraints                                                                                        Constraints
Constraints                                 C O N S T R A I N T S                                  Constraints
Constraints                                                                                        Constraints

************************************************************************************************************************
BO0001 = BOND       H10   C5
BO0002 = BOND       H10   C17
AN0001 = ANGLE      C5    H10   C17
VALUES
BO0001 =      1.10000000 ANGSTROM
BO0002 =      1.80000000 ANGSTROM
AN0001 =    180.00000000 DEGREE
************************************************************************************************************************


 *************************************************************
 * Values of the primitive constraints                       *
 *************************************************************
 BO0001   : Bond Length=  2.999881 / Angstrom  5.668953 / bohr
 BO0002   : Bond Length=  1.100034 / Angstrom  2.078762 / bohr
 AN0001   : Angle=      174.1655   / Degree    3.039761 / rad

 *******************************************
 * Values of the constraints   / au or rad *
 *******************************************
   Label        C         C0
 Cns001      5.668953  2.078699
 Cns002      2.078762  3.401507
 Cns003      3.039761  3.141593


 ITER.   ENERGY(OLD)    ENERGY(NEW)      DE          GRADMAX     GRADNORM    GRADRMS     STEPMAX     STEPLEN     STEPRMS   CPU-time
   1  -289.90240527  -289.90013411     0.00227115  0.00679270  0.00902195  0.00119499  0.28837245  0.89451628  0.01569327      9.84

 Constraints section
ConstraintsConstraintsConstraintsConstraintsConstraintsConstraintsConstraintsConstraintsConstraintsConstraints
ConstraintsConstraintsConstraintsConstraintsConstraintsConstraintsConstraintsConstraintsConstraintsConstraints
Constraints                                                                                        Constraints
Constraints                                 C O N S T R A I N T S                                  Constraints
Constraints                                                                                        Constraints

************************************************************************************************************************
BO0001 = BOND       H10   C5
BO0002 = BOND       H10   C17
AN0001 = ANGLE      C5    H10   C17
VALUES
BO0001 =      1.10000000 ANGSTROM
BO0002 =      1.80000000 ANGSTROM
AN0001 =    180.00000000 DEGREE
************************************************************************************************************************


 *************************************************************
 * Values of the primitive constraints                       *
 *************************************************************
 BO0001   : Bond Length=  2.960276 / Angstrom  5.594111 / bohr
 BO0002   : Bond Length=  1.114666 / Angstrom  2.106413 / bohr
 AN0001   : Angle=      174.2282   / Degree    3.040855 / rad

 *******************************************
 * Values of the constraints   / au or rad *
 *******************************************
   Label        C         C0
 Cns001      5.594111  2.078699
 Cns002      2.106413  3.401507
 Cns003      3.040855  3.141593

   2  -289.90013411  -289.89946706     0.00066705  0.02338671  0.04989485  0.00660873  0.43211819  1.20039440  0.02105955     19.76

 Constraints section
ConstraintsConstraintsConstraintsConstraintsConstraintsConstraintsConstraintsConstraintsConstraintsConstraints
ConstraintsConstraintsConstraintsConstraintsConstraintsConstraintsConstraintsConstraintsConstraintsConstraints
Constraints                                                                                        Constraints
Constraints                                 C O N S T R A I N T S                                  Constraints
Constraints                                                                                        Constraints

************************************************************************************************************************
BO0001 = BOND       H10   C5
BO0002 = BOND       H10   C17
AN0001 = ANGLE      C5    H10   C17
VALUES
BO0001 =      1.10000000 ANGSTROM
BO0002 =      1.80000000 ANGSTROM
AN0001 =    180.00000000 DEGREE
************************************************************************************************************************


 *************************************************************
 * Values of the primitive constraints                       *
 *************************************************************
 BO0001   : Bond Length=  2.877175 / Angstrom  5.437072 / bohr
 BO0002   : Bond Length=  1.145216 / Angstrom  2.164145 / bohr
 AN0001   : Angle=      174.4518   / Degree    3.044758 / rad

 *******************************************
 * Values of the constraints   / au or rad *
 *******************************************
   Label        C         C0
 Cns001      5.437072  2.078699
 Cns002      2.164145  3.401507
 Cns003      3.044758  3.141593

   3  -289.89946706  -289.89542469     0.00404238  0.03975087  0.06144674  0.00813882  0.13945031  0.33744636  0.00592011     29.47

 Constraints section
ConstraintsConstraintsConstraintsConstraintsConstraintsConstraintsConstraintsConstraintsConstraintsConstraints
ConstraintsConstraintsConstraintsConstraintsConstraintsConstraintsConstraintsConstraintsConstraintsConstraints
Constraints                                                                                        Constraints
Constraints                                 C O N S T R A I N T S                                  Constraints
Constraints                                                                                        Constraints

************************************************************************************************************************
BO0001 = BOND       H10   C5
BO0002 = BOND       H10   C17
AN0001 = ANGLE      C5    H10   C17
VALUES
BO0001 =      1.10000000 ANGSTROM
BO0002 =      1.80000000 ANGSTROM
AN0001 =    180.00000000 DEGREE
************************************************************************************************************************


 *************************************************************
 * Values of the primitive constraints                       *
 *************************************************************
 BO0001   : Bond Length=  2.810797 / Angstrom  5.311636 / bohr
 BO0002   : Bond Length=  1.169726 / Angstrom  2.210462 / bohr
 AN0001   : Angle=      174.6605   / Degree    3.048402 / rad

 *******************************************
 * Values of the constraints   / au or rad *
 *******************************************
   Label        C         C0
 Cns001      5.311636  2.078699
 Cns002      2.210462  3.401507
 Cns003      3.048402  3.141593

   4  -289.89542469  -289.89038561     0.00503907  0.04295393  0.08535674  0.01130578  0.11629524  0.35637543  0.00625220     39.24

 Constraints section
ConstraintsConstraintsConstraintsConstraintsConstraintsConstraintsConstraintsConstraintsConstraintsConstraints
ConstraintsConstraintsConstraintsConstraintsConstraintsConstraintsConstraintsConstraintsConstraintsConstraints
Constraints                                                                                        Constraints
Constraints                                 C O N S T R A I N T S                                  Constraints
Constraints                                                                                        Constraints

************************************************************************************************************************
BO0001 = BOND       H10   C5
BO0002 = BOND       H10   C17
AN0001 = ANGLE      C5    H10   C17
VALUES
BO0001 =      1.10000000 ANGSTROM
BO0002 =      1.80000000 ANGSTROM
AN0001 =    180.00000000 DEGREE
************************************************************************************************************************


 *************************************************************
 * Values of the primitive constraints                       *
 *************************************************************
 BO0001   : Bond Length=  2.756734 / Angstrom  5.209472 / bohr
 BO0002   : Bond Length=  1.189690 / Angstrom  2.248188 / bohr
 AN0001   : Angle=      174.8314   / Degree    3.051383 / rad

 *******************************************
 * Values of the constraints   / au or rad *
 *******************************************
   Label        C         C0
 Cns001      5.209472  2.078699
 Cns002      2.248188  3.401507
 Cns003      3.051383  3.141593

   5  -289.89038561  -289.88497558     0.00541003  0.06104152  0.11222069  0.01486399  0.10862679  0.28489571  0.00499817     49.14

 Constraints section
ConstraintsConstraintsConstraintsConstraintsConstraintsConstraintsConstraintsConstraintsConstraintsConstraints
ConstraintsConstraintsConstraintsConstraintsConstraintsConstraintsConstraintsConstraintsConstraintsConstraints
Constraints                                                                                        Constraints
Constraints                                 C O N S T R A I N T S                                  Constraints
Constraints                                                                                        Constraints

************************************************************************************************************************
BO0001 = BOND       H10   C5
BO0002 = BOND       H10   C17
AN0001 = ANGLE      C5    H10   C17
VALUES
BO0001 =      1.10000000 ANGSTROM
BO0002 =      1.80000000 ANGSTROM
AN0001 =    180.00000000 DEGREE
************************************************************************************************************************


 *************************************************************
 * Values of the primitive constraints                       *
 *************************************************************
 BO0001   : Bond Length=  2.703269 / Angstrom  5.108438 / bohr
 BO0002   : Bond Length=  1.209428 / Angstrom  2.285489 / bohr
 AN0001   : Angle=      175.0001   / Degree    3.054328 / rad

 *******************************************
 * Values of the constraints   / au or rad *
 *******************************************
   Label        C         C0
 Cns001      5.108438  2.078699
 Cns002      2.285489  3.401507
 Cns003      3.054328  3.141593

   6  -289.88497558  -289.87790099     0.00707459  0.07638670  0.13782690  0.01825562  0.10825962  0.26991576  0.00473536     59.09

 Constraints section
ConstraintsConstraintsConstraintsConstraintsConstraintsConstraintsConstraintsConstraintsConstraintsConstraints
ConstraintsConstraintsConstraintsConstraintsConstraintsConstraintsConstraintsConstraintsConstraintsConstraints
Constraints                                                                                        Constraints
Constraints                                 C O N S T R A I N T S                                  Constraints
Constraints                                                                                        Constraints

************************************************************************************************************************
BO0001 = BOND       H10   C5
BO0002 = BOND       H10   C17
AN0001 = ANGLE      C5    H10   C17
VALUES
BO0001 =      1.10000000 ANGSTROM
BO0002 =      1.80000000 ANGSTROM
AN0001 =    180.00000000 DEGREE
************************************************************************************************************************


 *************************************************************
 * Values of the primitive constraints                       *
 *************************************************************
 BO0001   : Bond Length=  2.649923 / Angstrom  5.007629 / bohr
 BO0002   : Bond Length=  1.229128 / Angstrom  2.322716 / bohr
 AN0001   : Angle=      175.1683   / Degree    3.057264 / rad

 *******************************************
 * Values of the constraints   / au or rad *
 *******************************************
   Label        C         C0
 Cns001      5.007629  2.078699
 Cns002      2.322716  3.401507
 Cns003      3.057264  3.141593

   7  -289.87790099  -289.87242095     0.00548005  0.09363313  0.16801713  0.02225441  0.10188482  0.19730409  0.00346148     69.01

 Constraints section
ConstraintsConstraintsConstraintsConstraintsConstraintsConstraintsConstraintsConstraintsConstraintsConstraints
ConstraintsConstraintsConstraintsConstraintsConstraintsConstraintsConstraintsConstraintsConstraintsConstraints
Constraints                                                                                        Constraints
Constraints                                 C O N S T R A I N T S                                  Constraints
Constraints                                                                                        Constraints

************************************************************************************************************************
BO0001 = BOND       H10   C5
BO0002 = BOND       H10   C17
AN0001 = ANGLE      C5    H10   C17
VALUES
BO0001 =      1.10000000 ANGSTROM
BO0002 =      1.80000000 ANGSTROM
AN0001 =    180.00000000 DEGREE
************************************************************************************************************************


 *************************************************************
 * Values of the primitive constraints                       *
 *************************************************************
 BO0001   : Bond Length=  2.596404 / Angstrom  4.906492 / bohr
 BO0002   : Bond Length=  1.248863 / Angstrom  2.360009 / bohr
 AN0001   : Angle=      175.3368   / Degree    3.060204 / rad

 *******************************************
 * Values of the constraints   / au or rad *
 *******************************************
   Label        C         C0
 Cns001      4.906492  2.078699
 Cns002      2.360009  3.401507
 Cns003      3.060204  3.141593

   8  -289.87242095  -289.87783102    -0.00541008  0.10326626  0.18673886  0.02473417  0.23454302  0.60294423  0.01057797     79.39

 Constraints section
ConstraintsConstraintsConstraintsConstraintsConstraintsConstraintsConstraintsConstraintsConstraintsConstraints
ConstraintsConstraintsConstraintsConstraintsConstraintsConstraintsConstraintsConstraintsConstraintsConstraints
Constraints                                                                                        Constraints
Constraints                                 C O N S T R A I N T S                                  Constraints
Constraints                                                                                        Constraints

************************************************************************************************************************
BO0001 = BOND       H10   C5
BO0002 = BOND       H10   C17
AN0001 = ANGLE      C5    H10   C17
VALUES
BO0001 =      1.10000000 ANGSTROM
BO0002 =      1.80000000 ANGSTROM
AN0001 =    180.00000000 DEGREE
************************************************************************************************************************


 *************************************************************
 * Values of the primitive constraints                       *
 *************************************************************
 BO0001   : Bond Length=  2.521946 / Angstrom  4.765786 / bohr
 BO0002   : Bond Length=  1.276287 / Angstrom  2.411832 / bohr
 AN0001   : Angle=      175.1720   / Degree    3.057328 / rad

 *******************************************
 * Values of the constraints   / au or rad *
 *******************************************
   Label        C         C0
 Cns001      4.765786  2.078699
 Cns002      2.411832  3.401507
 Cns003      3.057328  3.141593

   9  -289.87783102  -289.87066923     0.00716179  0.06715456  0.13880381  0.01838501  0.20693826  0.48171045  0.00845106     89.51

 Constraints section
ConstraintsConstraintsConstraintsConstraintsConstraintsConstraintsConstraintsConstraintsConstraintsConstraints
ConstraintsConstraintsConstraintsConstraintsConstraintsConstraintsConstraintsConstraintsConstraintsConstraints
Constraints                                                                                        Constraints
Constraints                                 C O N S T R A I N T S                                  Constraints
Constraints                                                                                        Constraints

************************************************************************************************************************
BO0001 = BOND       H10   C5
BO0002 = BOND       H10   C17
AN0001 = ANGLE      C5    H10   C17
VALUES
BO0001 =      1.10000000 ANGSTROM
BO0002 =      1.80000000 ANGSTROM
AN0001 =    180.00000000 DEGREE
************************************************************************************************************************


 *************************************************************
 * Values of the primitive constraints                       *
 *************************************************************
 BO0001   : Bond Length=  2.338365 / Angstrom  4.418869 / bohr
 BO0002   : Bond Length=  1.343901 / Angstrom  2.539605 / bohr
 AN0001   : Angle=      175.5461   / Degree    3.063858 / rad

 *******************************************
 * Values of the constraints   / au or rad *
 *******************************************
   Label        C         C0
 Cns001      4.418869  2.078699
 Cns002      2.539605  3.401507
 Cns003      3.063858  3.141593

  10  -289.87066923  -289.86717248     0.00349675  0.07233957  0.13609320  0.01802598  0.20749637  0.66064678  0.01159029    100.19

 Constraints section
ConstraintsConstraintsConstraintsConstraintsConstraintsConstraintsConstraintsConstraintsConstraintsConstraints
ConstraintsConstraintsConstraintsConstraintsConstraintsConstraintsConstraintsConstraintsConstraintsConstraints
Constraints                                                                                        Constraints
Constraints                                 C O N S T R A I N T S                                  Constraints
Constraints                                                                                        Constraints

************************************************************************************************************************
BO0001 = BOND       H10   C5
BO0002 = BOND       H10   C17
AN0001 = ANGLE      C5    H10   C17
VALUES
BO0001 =      1.10000000 ANGSTROM
BO0002 =      1.80000000 ANGSTROM
AN0001 =    180.00000000 DEGREE
************************************************************************************************************************


 *************************************************************
 * Values of the primitive constraints                       *
 *************************************************************
 BO0001   : Bond Length=  2.232411 / Angstrom  4.218644 / bohr
 BO0002   : Bond Length=  1.382925 / Angstrom  2.613350 / bohr
 AN0001   : Angle=      175.4795   / Degree    3.062695 / rad

 *******************************************
 * Values of the constraints   / au or rad *
 *******************************************
   Label        C         C0
 Cns001      4.218644  2.078699
 Cns002      2.613350  3.401507
 Cns003      3.062695  3.141593

  11  -289.86717248  -289.85652752     0.01064496  0.11422259  0.15041694  0.01992321  0.25013789  0.68825211  0.01207460    111.43

 Constraints section
ConstraintsConstraintsConstraintsConstraintsConstraintsConstraintsConstraintsConstraintsConstraintsConstraints
ConstraintsConstraintsConstraintsConstraintsConstraintsConstraintsConstraintsConstraintsConstraintsConstraints
Constraints                                                                                        Constraints
Constraints                                 C O N S T R A I N T S                                  Constraints
Constraints                                                                                        Constraints

************************************************************************************************************************
BO0001 = BOND       H10   C5
BO0002 = BOND       H10   C17
AN0001 = ANGLE      C5    H10   C17
VALUES
BO0001 =      1.10000000 ANGSTROM
BO0002 =      1.80000000 ANGSTROM
AN0001 =    180.00000000 DEGREE
************************************************************************************************************************


 *************************************************************
 * Values of the primitive constraints                       *
 *************************************************************
 BO0001   : Bond Length=  2.015916 / Angstrom  3.809530 / bohr
 BO0002   : Bond Length=  1.462662 / Angstrom  2.764030 / bohr
 AN0001   : Angle=      176.3404   / Degree    3.077721 / rad

 *******************************************
 * Values of the constraints   / au or rad *
 *******************************************
   Label        C         C0
 Cns001      3.809530  2.078699
 Cns002      2.764030  3.401507
 Cns003      3.077721  3.141593

  12  -289.85652752  -289.85211423     0.00441329  0.08920968  0.12283552  0.01626996  0.12945111  0.27139029  0.00476123    122.06

 Constraints section
ConstraintsConstraintsConstraintsConstraintsConstraintsConstraintsConstraintsConstraintsConstraintsConstraints
ConstraintsConstraintsConstraintsConstraintsConstraintsConstraintsConstraintsConstraintsConstraintsConstraints
Constraints                                                                                        Constraints
Constraints                                 C O N S T R A I N T S                                  Constraints
Constraints                                                                                        Constraints

************************************************************************************************************************
BO0001 = BOND       H10   C5
BO0002 = BOND       H10   C17
AN0001 = ANGLE      C5    H10   C17
VALUES
BO0001 =      1.10000000 ANGSTROM
BO0002 =      1.80000000 ANGSTROM
AN0001 =    180.00000000 DEGREE
************************************************************************************************************************


 *************************************************************
 * Values of the primitive constraints                       *
 *************************************************************
 BO0001   : Bond Length=  1.910140 / Angstrom  3.609642 / bohr
 BO0002   : Bond Length=  1.501620 / Angstrom  2.837650 / bohr
 AN0001   : Angle=      176.7617   / Degree    3.085074 / rad

 *******************************************
 * Values of the constraints   / au or rad *
 *******************************************
   Label        C         C0
 Cns001      3.609642  2.078699
 Cns002      2.837650  3.401507
 Cns003      3.085074  3.141593

  13  -289.85211423  -289.84837001     0.00374422  0.06084107  0.10421657  0.01380382  0.09396171  0.27753995  0.00486912    132.88

 Constraints section
ConstraintsConstraintsConstraintsConstraintsConstraintsConstraintsConstraintsConstraintsConstraintsConstraints
ConstraintsConstraintsConstraintsConstraintsConstraintsConstraintsConstraintsConstraintsConstraintsConstraints
Constraints                                                                                        Constraints
Constraints                                 C O N S T R A I N T S                                  Constraints
Constraints                                                                                        Constraints

************************************************************************************************************************
BO0001 = BOND       H10   C5
BO0002 = BOND       H10   C17
AN0001 = ANGLE      C5    H10   C17
VALUES
BO0001 =      1.10000000 ANGSTROM
BO0002 =      1.80000000 ANGSTROM
AN0001 =    180.00000000 DEGREE
************************************************************************************************************************


 *************************************************************
 * Values of the primitive constraints                       *
 *************************************************************
 BO0001   : Bond Length=  1.835700 / Angstrom  3.468970 / bohr
 BO0002   : Bond Length=  1.529037 / Angstrom  2.889461 / bohr
 AN0001   : Angle=      177.0382   / Degree    3.089900 / rad

 *******************************************
 * Values of the constraints   / au or rad *
 *******************************************
   Label        C         C0
 Cns001      3.468970  2.078699
 Cns002      2.889461  3.401507
 Cns003      3.089900  3.141593

  14  -289.84837001  -289.84097263     0.00739737  0.07900302  0.11895813  0.01575639  0.12895865  0.39543871  0.00693752    143.93

 Constraints section
ConstraintsConstraintsConstraintsConstraintsConstraintsConstraintsConstraintsConstraintsConstraintsConstraints
ConstraintsConstraintsConstraintsConstraintsConstraintsConstraintsConstraintsConstraintsConstraintsConstraints
Constraints                                                                                        Constraints
Constraints                                 C O N S T R A I N T S                                  Constraints
Constraints                                                                                        Constraints

************************************************************************************************************************
BO0001 = BOND       H10   C5
BO0002 = BOND       H10   C17
AN0001 = ANGLE      C5    H10   C17
VALUES
BO0001 =      1.10000000 ANGSTROM
BO0002 =      1.80000000 ANGSTROM
AN0001 =    180.00000000 DEGREE
************************************************************************************************************************


 *************************************************************
 * Values of the primitive constraints                       *
 *************************************************************
 BO0001   : Bond Length=  1.761260 / Angstrom  3.328299 / bohr
 BO0002   : Bond Length=  1.556453 / Angstrom  2.941271 / bohr
 AN0001   : Angle=      177.3270   / Degree    3.094941 / rad

 *******************************************
 * Values of the constraints   / au or rad *
 *******************************************
   Label        C         C0
 Cns001      3.328299  2.078699
 Cns002      2.941271  3.401507
 Cns003      3.094941  3.141593

  15  -289.84097263  -289.82858663     0.01238600  0.09697295  0.15087600  0.01998401  0.11640120  0.27220874  0.00477559    154.84

 Constraints section
ConstraintsConstraintsConstraintsConstraintsConstraintsConstraintsConstraintsConstraintsConstraintsConstraints
ConstraintsConstraintsConstraintsConstraintsConstraintsConstraintsConstraintsConstraintsConstraintsConstraints
Constraints                                                                                        Constraints
Constraints                                 C O N S T R A I N T S                                  Constraints
Constraints                                                                                        Constraints

************************************************************************************************************************
BO0001 = BOND       H10   C5
BO0002 = BOND       H10   C17
AN0001 = ANGLE      C5    H10   C17
VALUES
BO0001 =      1.10000000 ANGSTROM
BO0002 =      1.80000000 ANGSTROM
AN0001 =    180.00000000 DEGREE
************************************************************************************************************************


 *************************************************************
 * Values of the primitive constraints                       *
 *************************************************************
 BO0001   : Bond Length=  1.677635 / Angstrom  3.170270 / bohr
 BO0002   : Bond Length=  1.587253 / Angstrom  2.999474 / bohr
  Valence angle close to end in range of definition
 AN0001   : Angle=      177.6288   / Degree    3.100208 / rad

 *******************************************
 * Values of the constraints   / au or rad *
 *******************************************
   Label        C         C0
 Cns001      3.170270  2.078699
 Cns002      2.999474  3.401507
 Cns003      3.100208  3.141593

  16  -289.82858663  -289.83498323    -0.00639660  0.09432420  0.20449666  0.02708624  0.14546919  0.38770273  0.00680180    165.67

 Constraints section
ConstraintsConstraintsConstraintsConstraintsConstraintsConstraintsConstraintsConstraintsConstraintsConstraints
ConstraintsConstraintsConstraintsConstraintsConstraintsConstraintsConstraintsConstraintsConstraintsConstraints
Constraints                                                                                        Constraints
Constraints                                 C O N S T R A I N T S                                  Constraints
Constraints                                                                                        Constraints

************************************************************************************************************************
BO0001 = BOND       H10   C5
BO0002 = BOND       H10   C17
AN0001 = ANGLE      C5    H10   C17
VALUES
BO0001 =      1.10000000 ANGSTROM
BO0002 =      1.80000000 ANGSTROM
AN0001 =    180.00000000 DEGREE
************************************************************************************************************************


 *************************************************************
 * Values of the primitive constraints                       *
 *************************************************************
 BO0001   : Bond Length=  1.598758 / Angstrom  3.021214 / bohr
 BO0002   : Bond Length=  1.616304 / Angstrom  3.054372 / bohr
  Valence angle close to end in range of definition
 AN0001   : Angle=      177.8768   / Degree    3.104535 / rad

 *******************************************
 * Values of the constraints   / au or rad *
 *******************************************
   Label        C         C0
 Cns001      3.021214  2.078699
 Cns002      3.054372  3.401507
 Cns003      3.104535  3.141593

  17  -289.83498323  -289.84168610    -0.00670287  0.07576692  0.16554061  0.02192639  0.13528495  0.19770062  0.00346843    176.46

 Constraints section
ConstraintsConstraintsConstraintsConstraintsConstraintsConstraintsConstraintsConstraintsConstraintsConstraints
ConstraintsConstraintsConstraintsConstraintsConstraintsConstraintsConstraintsConstraintsConstraintsConstraints
Constraints                                                                                        Constraints
Constraints                                 C O N S T R A I N T S                                  Constraints
Constraints                                                                                        Constraints

************************************************************************************************************************
BO0001 = BOND       H10   C5
BO0002 = BOND       H10   C17
AN0001 = ANGLE      C5    H10   C17
VALUES
BO0001 =      1.10000000 ANGSTROM
BO0002 =      1.80000000 ANGSTROM
AN0001 =    180.00000000 DEGREE
************************************************************************************************************************


 *************************************************************
 * Values of the primitive constraints                       *
 *************************************************************
 BO0001   : Bond Length=  1.514244 / Angstrom  2.861506 / bohr
 BO0002   : Bond Length=  1.647431 / Angstrom  3.113194 / bohr
  Valence angle close to end in range of definition
 AN0001   : Angle=      178.2364   / Degree    3.110812 / rad

 *******************************************
 * Values of the constraints   / au or rad *
 *******************************************
   Label        C         C0
 Cns001      2.861506  2.078699
 Cns002      3.113194  3.401507
 Cns003      3.110812  3.141593

  18  -289.84168610  -289.84906911    -0.00738301  0.05545283  0.12001166  0.01589593  0.13632705  0.22462233  0.00394074    187.32

 Constraints section
ConstraintsConstraintsConstraintsConstraintsConstraintsConstraintsConstraintsConstraintsConstraintsConstraints
ConstraintsConstraintsConstraintsConstraintsConstraintsConstraintsConstraintsConstraintsConstraintsConstraints
Constraints                                                                                        Constraints
Constraints                                 C O N S T R A I N T S                                  Constraints
Constraints                                                                                        Constraints

************************************************************************************************************************
BO0001 = BOND       H10   C5
BO0002 = BOND       H10   C17
AN0001 = ANGLE      C5    H10   C17
VALUES
BO0001 =      1.10000000 ANGSTROM
BO0002 =      1.80000000 ANGSTROM
AN0001 =    180.00000000 DEGREE
************************************************************************************************************************


 *************************************************************
 * Values of the primitive constraints                       *
 *************************************************************
 BO0001   : Bond Length=  1.439809 / Angstrom  2.720845 / bohr
 BO0002   : Bond Length=  1.674846 / Angstrom  3.165000 / bohr
  Valence angle close to end in range of definition
 AN0001   : Angle=      178.5533   / Degree    3.116342 / rad

 *******************************************
 * Values of the constraints   / au or rad *
 *******************************************
   Label        C         C0
 Cns001      2.720845  2.078699
 Cns002      3.165000  3.401507
 Cns003      3.116342  3.141593

  19  -289.84906911  -289.85369786    -0.00462875  0.05878745  0.10604186  0.01404559  0.15772389  0.33245073  0.00583247    198.59

 Constraints section
ConstraintsConstraintsConstraintsConstraintsConstraintsConstraintsConstraintsConstraintsConstraintsConstraints
ConstraintsConstraintsConstraintsConstraintsConstraintsConstraintsConstraintsConstraintsConstraintsConstraints
Constraints                                                                                        Constraints
Constraints                                 C O N S T R A I N T S                                  Constraints
Constraints                                                                                        Constraints

************************************************************************************************************************
BO0001 = BOND       H10   C5
BO0002 = BOND       H10   C17
AN0001 = ANGLE      C5    H10   C17
VALUES
BO0001 =      1.10000000 ANGSTROM
BO0002 =      1.80000000 ANGSTROM
AN0001 =    180.00000000 DEGREE
************************************************************************************************************************


 *************************************************************
 * Values of the primitive constraints                       *
 *************************************************************
 BO0001   : Bond Length=  1.365375 / Angstrom  2.580184 / bohr
 BO0002   : Bond Length=  1.702261 / Angstrom  3.216807 / bohr
  Valence angle close to end in range of definition
 AN0001   : Angle=      178.8692   / Degree    3.121856 / rad

 *******************************************
 * Values of the constraints   / au or rad *
 *******************************************
   Label        C         C0
 Cns001      2.580184  2.078699
 Cns002      3.216807  3.401507
 Cns003      3.121856  3.141593

  20  -289.85369786  -289.86104523    -0.00734738  0.05878241  0.11622881  0.01539488  0.32594329  0.74088871  0.01299805    210.83

 Constraints section
ConstraintsConstraintsConstraintsConstraintsConstraintsConstraintsConstraintsConstraintsConstraintsConstraints
ConstraintsConstraintsConstraintsConstraintsConstraintsConstraintsConstraintsConstraintsConstraintsConstraints
Constraints                                                                                        Constraints
Constraints                                 C O N S T R A I N T S                                  Constraints
Constraints                                                                                        Constraints

************************************************************************************************************************
BO0001 = BOND       H10   C5
BO0002 = BOND       H10   C17
AN0001 = ANGLE      C5    H10   C17
VALUES
BO0001 =      1.10000000 ANGSTROM
BO0002 =      1.80000000 ANGSTROM
AN0001 =    180.00000000 DEGREE
************************************************************************************************************************


 *************************************************************
 * Values of the primitive constraints                       *
 *************************************************************
 BO0001   : Bond Length=  1.261797 / Angstrom  2.384450 / bohr
 BO0002   : Bond Length=  1.740409 / Angstrom  3.288897 / bohr
  Valence angle close to end in range of definition
 AN0001   : Angle=      179.2750   / Degree    3.128938 / rad

 *******************************************
 * Values of the constraints   / au or rad *
 *******************************************
   Label        C         C0
 Cns001      2.384450  2.078699
 Cns002      3.288897  3.401507
 Cns003      3.128938  3.141593

  21  -289.86104523  -289.87098878    -0.00994355  0.06337760  0.11075602  0.01466999  0.30207134  0.83380789  0.01462821    223.09

 Constraints section
ConstraintsConstraintsConstraintsConstraintsConstraintsConstraintsConstraintsConstraintsConstraintsConstraints
ConstraintsConstraintsConstraintsConstraintsConstraintsConstraintsConstraintsConstraintsConstraintsConstraints
Constraints                                                                                        Constraints
Constraints                                 C O N S T R A I N T S                                  Constraints
Constraints                                                                                        Constraints

************************************************************************************************************************
BO0001 = BOND       H10   C5
BO0002 = BOND       H10   C17
AN0001 = ANGLE      C5    H10   C17
VALUES
BO0001 =      1.10000000 ANGSTROM
BO0002 =      1.80000000 ANGSTROM
AN0001 =    180.00000000 DEGREE
************************************************************************************************************************


 *************************************************************
 * Values of the primitive constraints                       *
 *************************************************************
 BO0001   : Bond Length=  1.158172 / Angstrom  2.188627 / bohr
 BO0002   : Bond Length=  1.778575 / Angstrom  3.361020 / bohr
  Valence angle close to end in range of definition
 AN0001   : Angle=      179.6476   / Degree    3.135442 / rad

 *******************************************
 * Values of the constraints   / au or rad *
 *******************************************
   Label        C         C0
 Cns001      2.188627  2.078699
 Cns002      3.361020  3.401507
 Cns003      3.135442  3.141593

  22  -289.87098878  -289.87295073    -0.00196194  0.02433126  0.05404707  0.00715871  0.17157219  0.48073480  0.00843394    235.55

 Constraints section
ConstraintsConstraintsConstraintsConstraintsConstraintsConstraintsConstraintsConstraintsConstraintsConstraints
ConstraintsConstraintsConstraintsConstraintsConstraintsConstraintsConstraintsConstraintsConstraintsConstraints
Constraints                                                                                        Constraints
Constraints                                 C O N S T R A I N T S                                  Constraints
Constraints                                                                                        Constraints

************************************************************************************************************************
BO0001 = BOND       H10   C5
BO0002 = BOND       H10   C17
AN0001 = ANGLE      C5    H10   C17
VALUES
BO0001 =      1.10000000 ANGSTROM
BO0002 =      1.80000000 ANGSTROM
AN0001 =    180.00000000 DEGREE
************************************************************************************************************************


 *************************************************************
 * Values of the primitive constraints                       *
 *************************************************************
 BO0001   : Bond Length=  1.100000 / Angstrom  2.078699 / bohr
 BO0002   : Bond Length=  1.800000 / Angstrom  3.401507 / bohr
  Valence angle close to end in range of definition
 AN0001   : Angle=      179.6104   / Degree    3.134794 / rad

 *******************************************
 * Values of the constraints   / au or rad *
 *******************************************
   Label        C         C0
 Cns001      2.078699  2.078699
 Cns002      3.401507  3.401507
 Cns003      3.134794  3.141593

  23  -289.87295073  -289.87436678    -0.00141605  0.03842221  0.05993204  0.00793819  0.19642675  0.41312225  0.00724776    247.63

 Constraints section
ConstraintsConstraintsConstraintsConstraintsConstraintsConstraintsConstraintsConstraintsConstraintsConstraints
ConstraintsConstraintsConstraintsConstraintsConstraintsConstraintsConstraintsConstraintsConstraintsConstraints
Constraints                                                                                        Constraints
Constraints                                 C O N S T R A I N T S                                  Constraints
Constraints                                                                                        Constraints

************************************************************************************************************************
BO0001 = BOND       H10   C5
BO0002 = BOND       H10   C17
AN0001 = ANGLE      C5    H10   C17
VALUES
BO0001 =      1.10000000 ANGSTROM
BO0002 =      1.80000000 ANGSTROM
AN0001 =    180.00000000 DEGREE
************************************************************************************************************************


 *************************************************************
 * Values of the primitive constraints                       *
 *************************************************************
 BO0001   : Bond Length=  1.100000 / Angstrom  2.078699 / bohr
 BO0002   : Bond Length=  1.800000 / Angstrom  3.401507 / bohr
  Valence angle close to end in range of definition
 AN0001   : Angle=      179.8602   / Degree    3.139153 / rad

 *******************************************
 * Values of the constraints   / au or rad *
 *******************************************
   Label        C         C0
 Cns001      2.078699  2.078699
 Cns002      3.401507  3.401507
 Cns003      3.139153  3.141593

  24  -289.87436678  -289.87484783    -0.00048106  0.03847895  0.05713432  0.00756763  0.08321830  0.21171608  0.00371432    258.81

 Constraints section
ConstraintsConstraintsConstraintsConstraintsConstraintsConstraintsConstraintsConstraintsConstraintsConstraints
ConstraintsConstraintsConstraintsConstraintsConstraintsConstraintsConstraintsConstraintsConstraintsConstraints
Constraints                                                                                        Constraints
Constraints                                 C O N S T R A I N T S                                  Constraints
Constraints                                                                                        Constraints

************************************************************************************************************************
BO0001 = BOND       H10   C5
BO0002 = BOND       H10   C17
AN0001 = ANGLE      C5    H10   C17
VALUES
BO0001 =      1.10000000 ANGSTROM
BO0002 =      1.80000000 ANGSTROM
AN0001 =    180.00000000 DEGREE
************************************************************************************************************************


 *************************************************************
 * Values of the primitive constraints                       *
 *************************************************************
 BO0001   : Bond Length=  1.100000 / Angstrom  2.078699 / bohr
 BO0002   : Bond Length=  1.800000 / Angstrom  3.401507 / bohr
  Valence angle close to end in range of definition
 AN0001   : Angle=      179.8767   / Degree    3.139442 / rad

 *******************************************
 * Values of the constraints   / au or rad *
 *******************************************
   Label        C         C0
 Cns001      2.078699  2.078699
 Cns002      3.401507  3.401507
 Cns003      3.139442  3.141593

  25  -289.87484783  -289.87515187    -0.00030404  0.03889847  0.05284242  0.00699915  0.08248350  0.23830369  0.00418077    268.89

 Constraints section
ConstraintsConstraintsConstraintsConstraintsConstraintsConstraintsConstraintsConstraintsConstraintsConstraints
ConstraintsConstraintsConstraintsConstraintsConstraintsConstraintsConstraintsConstraintsConstraintsConstraints
Constraints                                                                                        Constraints
Constraints                                 C O N S T R A I N T S                                  Constraints
Constraints                                                                                        Constraints

************************************************************************************************************************
BO0001 = BOND       H10   C5
BO0002 = BOND       H10   C17
AN0001 = ANGLE      C5    H10   C17
VALUES
BO0001 =      1.10000000 ANGSTROM
BO0002 =      1.80000000 ANGSTROM
AN0001 =    180.00000000 DEGREE
************************************************************************************************************************


 *************************************************************
 * Values of the primitive constraints                       *
 *************************************************************
 BO0001   : Bond Length=  1.100000 / Angstrom  2.078699 / bohr
 BO0002   : Bond Length=  1.800000 / Angstrom  3.401507 / bohr
  Valence angle close to end in range of definition
 AN0001   : Angle=      179.9351   / Degree    3.140460 / rad

 *******************************************
 * Values of the constraints   / au or rad *
 *******************************************
   Label        C         C0
 Cns001      2.078699  2.078699
 Cns002      3.401507  3.401507
 Cns003      3.140460  3.141593

  26  -289.87515187  -289.87559665    -0.00044478  0.03894248  0.05273064  0.00698434  0.17991346  0.50689060  0.00889282    279.68

 Constraints section
ConstraintsConstraintsConstraintsConstraintsConstraintsConstraintsConstraintsConstraintsConstraintsConstraints
ConstraintsConstraintsConstraintsConstraintsConstraintsConstraintsConstraintsConstraintsConstraintsConstraints
Constraints                                                                                        Constraints
Constraints                                 C O N S T R A I N T S                                  Constraints
Constraints                                                                                        Constraints

************************************************************************************************************************
BO0001 = BOND       H10   C5
BO0002 = BOND       H10   C17
AN0001 = ANGLE      C5    H10   C17
VALUES
BO0001 =      1.10000000 ANGSTROM
BO0002 =      1.80000000 ANGSTROM
AN0001 =    180.00000000 DEGREE
************************************************************************************************************************


 *************************************************************
 * Values of the primitive constraints                       *
 *************************************************************
 BO0001   : Bond Length=  1.100000 / Angstrom  2.078699 / bohr
 BO0002   : Bond Length=  1.800000 / Angstrom  3.401507 / bohr
  Valence angle close to end in range of definition
 AN0001   : Angle=      179.9139   / Degree    3.140090 / rad

 *******************************************
 * Values of the constraints   / au or rad *
 *******************************************
   Label        C         C0
 Cns001      2.078699  2.078699
 Cns002      3.401507  3.401507
 Cns003      3.140090  3.141593

  27  -289.87559665  -289.87585470    -0.00025805  0.03864403  0.05346772  0.00708197  0.15146335  0.36291507  0.00636693    290.65

 Constraints section
ConstraintsConstraintsConstraintsConstraintsConstraintsConstraintsConstraintsConstraintsConstraintsConstraints
ConstraintsConstraintsConstraintsConstraintsConstraintsConstraintsConstraintsConstraintsConstraintsConstraints
Constraints                                                                                        Constraints
Constraints                                 C O N S T R A I N T S                                  Constraints
Constraints                                                                                        Constraints

************************************************************************************************************************
BO0001 = BOND       H10   C5
BO0002 = BOND       H10   C17
AN0001 = ANGLE      C5    H10   C17
VALUES
BO0001 =      1.10000000 ANGSTROM
BO0002 =      1.80000000 ANGSTROM
AN0001 =    180.00000000 DEGREE
************************************************************************************************************************


 *************************************************************
 * Values of the primitive constraints                       *
 *************************************************************
 BO0001   : Bond Length=  1.100000 / Angstrom  2.078699 / bohr
 BO0002   : Bond Length=  1.800000 / Angstrom  3.401507 / bohr
  Valence angle close to end in range of definition
 AN0001   : Angle=      179.9648   / Degree    3.140977 / rad

 *******************************************
 * Values of the constraints   / au or rad *
 *******************************************
   Label        C         C0
 Cns001      2.078699  2.078699
 Cns002      3.401507  3.401507
 Cns003      3.140977  3.141593

  28  -289.87585470  -289.87592943    -0.00007473  0.03833323  0.05342796  0.00707671  0.06774914  0.15074234  0.00264460    300.78

 Constraints section
ConstraintsConstraintsConstraintsConstraintsConstraintsConstraintsConstraintsConstraintsConstraintsConstraints
ConstraintsConstraintsConstraintsConstraintsConstraintsConstraintsConstraintsConstraintsConstraintsConstraints
Constraints                                                                                        Constraints
Constraints                                 C O N S T R A I N T S                                  Constraints
Constraints                                                                                        Constraints

************************************************************************************************************************
BO0001 = BOND       H10   C5
BO0002 = BOND       H10   C17
AN0001 = ANGLE      C5    H10   C17
VALUES
BO0001 =      1.10000000 ANGSTROM
BO0002 =      1.80000000 ANGSTROM
AN0001 =    180.00000000 DEGREE
************************************************************************************************************************


 *************************************************************
 * Values of the primitive constraints                       *
 *************************************************************
 BO0001   : Bond Length=  1.100000 / Angstrom  2.078699 / bohr
 BO0002   : Bond Length=  1.800000 / Angstrom  3.401507 / bohr
  Valence angle close to end in range of definition
 AN0001   : Angle=      179.9004   / Degree    3.139855 / rad

 *******************************************
 * Values of the constraints   / au or rad *
 *******************************************
   Label        C         C0
 Cns001      2.078699  2.078699
 Cns002      3.401507  3.401507
 Cns003      3.139855  3.141593

  29  -289.87592943  -289.87598600    -0.00005656  0.03822342  0.05302070  0.00702276  0.02533347  0.06838635  0.00119976    309.74

 Constraints section
ConstraintsConstraintsConstraintsConstraintsConstraintsConstraintsConstraintsConstraintsConstraintsConstraints
ConstraintsConstraintsConstraintsConstraintsConstraintsConstraintsConstraintsConstraintsConstraintsConstraints
Constraints                                                                                        Constraints
Constraints                                 C O N S T R A I N T S                                  Constraints
Constraints                                                                                        Constraints

************************************************************************************************************************
BO0001 = BOND       H10   C5
BO0002 = BOND       H10   C17
AN0001 = ANGLE      C5    H10   C17
VALUES
BO0001 =      1.10000000 ANGSTROM
BO0002 =      1.80000000 ANGSTROM
AN0001 =    180.00000000 DEGREE
************************************************************************************************************************


 *************************************************************
 * Values of the primitive constraints                       *
 *************************************************************
 BO0001   : Bond Length=  1.100000 / Angstrom  2.078699 / bohr
 BO0002   : Bond Length=  1.800000 / Angstrom  3.401507 / bohr
  Valence angle close to end in range of definition
 AN0001   : Angle=      179.9448   / Degree    3.140630 / rad

 *******************************************
 * Values of the constraints   / au or rad *
 *******************************************
   Label        C         C0
 Cns001      2.078699  2.078699
 Cns002      3.401507  3.401507
 Cns003      3.140630  3.141593

  30  -289.87598600  -289.87600618    -0.00002018  0.03818164  0.05284415  0.00699938  0.03161764  0.08046518  0.00141167    319.30

 Constraints section
ConstraintsConstraintsConstraintsConstraintsConstraintsConstraintsConstraintsConstraintsConstraintsConstraints
ConstraintsConstraintsConstraintsConstraintsConstraintsConstraintsConstraintsConstraintsConstraintsConstraints
Constraints                                                                                        Constraints
Constraints                                 C O N S T R A I N T S                                  Constraints
Constraints                                                                                        Constraints

************************************************************************************************************************
BO0001 = BOND       H10   C5
BO0002 = BOND       H10   C17
AN0001 = ANGLE      C5    H10   C17
VALUES
BO0001 =      1.10000000 ANGSTROM
BO0002 =      1.80000000 ANGSTROM
AN0001 =    180.00000000 DEGREE
************************************************************************************************************************


 *************************************************************
 * Values of the primitive constraints                       *
 *************************************************************
 BO0001   : Bond Length=  1.100000 / Angstrom  2.078699 / bohr
 BO0002   : Bond Length=  1.800000 / Angstrom  3.401507 / bohr
  Valence angle close to end in range of definition
 AN0001   : Angle=      179.9067   / Degree    3.139964 / rad

 *******************************************
 * Values of the constraints   / au or rad *
 *******************************************
   Label        C         C0
 Cns001      2.078699  2.078699
 Cns002      3.401507  3.401507
 Cns003      3.139964  3.141593

  31  -289.87600618  -289.87599634     0.00000984  0.03809786  0.05285285  0.00700053  0.07194684  0.16141802  0.00283190    328.78

 Constraints section
ConstraintsConstraintsConstraintsConstraintsConstraintsConstraintsConstraintsConstraintsConstraintsConstraints
ConstraintsConstraintsConstraintsConstraintsConstraintsConstraintsConstraintsConstraintsConstraintsConstraints
Constraints                                                                                        Constraints
Constraints                                 C O N S T R A I N T S                                  Constraints
Constraints                                                                                        Constraints

************************************************************************************************************************
BO0001 = BOND       H10   C5
BO0002 = BOND       H10   C17
AN0001 = ANGLE      C5    H10   C17
VALUES
BO0001 =      1.10000000 ANGSTROM
BO0002 =      1.80000000 ANGSTROM
AN0001 =    180.00000000 DEGREE
************************************************************************************************************************


 *************************************************************
 * Values of the primitive constraints                       *
 *************************************************************
 BO0001   : Bond Length=  1.100000 / Angstrom  2.078699 / bohr
 BO0002   : Bond Length=  1.800000 / Angstrom  3.401507 / bohr
  Valence angle close to end in range of definition
 AN0001   : Angle=      179.9884   / Degree    3.141391 / rad

 *******************************************
 * Values of the constraints   / au or rad *
[...]
   12      0.140D-05      0.374D-06      -290.22563974    816.413434    0.42252    0.09736    1.57852    9     29.9    398.1
   13      0.431D-06      0.133D-06      -290.22563974    816.413404    0.42252    0.09737    1.57850    9     28.0    426.1
   14      0.184D-06      0.858D-07      -290.22563974    816.413354    0.42254    0.09737    1.57853    9     26.2    452.3

 Final alpha occupancy:  28
 Final beta  occupancy:  27

 !UKS STATE  1.1 Energy              -290.225639742403
 Nuclear energy                       281.19686931
 One-electron energy                 -946.63612211
 Two-electron energy                  408.20667699
 Density functional                   -32.99306392     PBEX=-41.64642895 PBEC= -1.75824221
 Virial quotient                       -1.00558738
 !UKS STATE  1.1 Dipole moment          0.42253876     0.09737227     1.57852901
 Dipole moment /Debye                   1.07391606     0.24747940     4.01195777

 Orbital energies for positive spin:

         1.1          2.1          3.1          4.1          5.1          6.1          7.1          8.1          9.1         10.1
    -14.404495   -10.296032   -10.249037   -10.246688   -10.231380   -10.224220   -10.222276    -0.945072    -0.861332    -0.773514

        11.1         12.1         13.1         14.1         15.1         16.1         17.1         18.1         19.1         20.1
     -0.732737    -0.658662    -0.599384    -0.517100    -0.494063    -0.483769    -0.455158    -0.439819    -0.419839    -0.415112

        21.1         22.1         23.1         24.1         25.1         26.1         27.1         28.1         29.1         30.1
     -0.391166    -0.381098    -0.371103    -0.368651    -0.365588    -0.352209    -0.347755    -0.328115     0.012055     0.015002

 Orbital energies for negative spin:

         1.1          2.1          3.1          4.1          5.1          6.1          7.1          8.1          9.1         10.1
    -14.402926   -10.279812   -10.248870   -10.242551   -10.231274   -10.224131   -10.222281    -0.929300    -0.858017    -0.771092

        11.1         12.1         13.1         14.1         15.1         16.1         17.1         18.1         19.1         20.1
     -0.725020    -0.657466    -0.591923    -0.501184    -0.482523    -0.466955    -0.440768    -0.435995    -0.413661    -0.399542

        21.1         22.1         23.1         24.1         25.1         26.1         27.1         28.1         29.1         30.1
     -0.389801    -0.373900    -0.362812    -0.361859    -0.354127    -0.348631    -0.342734    -0.199003     0.024897     0.031563


 HOMO     28.1    -0.328115 =      -8.9285eV
 LUMO    -28.1    -0.199003 =      -5.4152eV
 LUMO-HOMO         0.129112 =       3.5133eV

 EXPECTATION VALUE OF S**2:             0.76435491

 Occupation number threshold for pseudo-canonical orbitals: 1.9990 (occupied), 0.0010 (virtual)

 Number of pseudo-canonical occupied orbitals per symmetry:   24
 Number of active natural orbitals per symmetry:               7

 Natural orbitals saved to record    2204.2 (Orbital set 3)

 Orbital spaces for UNO-CAS (Min. occupation: 0.020  Max. occupation: 1.980):

 Closed:       27
 Active:        1


 **********************************************************************************************************************************
 DATASETS  * FILE   NREC   LENGTH (MB)   RECORD NAMES
              1      19       35.48       500      610      700      900      950      970     1001      129      960     1100   
                                          VAR    BASINP    GEOM    SYMINP    ZMAT    AOBASIS   BASIS     P2S    ABASIS      S 
                                         1400     1410     1200     1210     1080     1600     1650     1700     1800   
                                           T        V       H0       H01     AOSYM     SMH    MOLCAS    OPER     GRID   

              2      13       29.89       700     1000      520     2100     1800     2200      520(1)  2201      520(2)  2202   
                                         GEOM     BASIS   MCVARS     RHF     GRID      UKS    MCVARS     UKS    MCVARS     UKS  
                                         1001     2203     2204   
                                         BASIS     UKS      UKS  

 PROGRAMS   *        TOTAL    DF-UKS    DF-UKS       INT    DF-UKS      OPTG    DF-UKS      OPTG    DF-UKS     DF-HF       INT
 CPU TIMES  *      5593.44    452.35     15.30      0.24      8.43   4507.62     71.39    519.70      8.71      9.29      0.29
 REAL TIME  *      5620.58 SEC
 DISK USED  *        91.54 MB
 **********************************************************************************************************************************

 Density functional group PBE0=PBEX+PBEC
 Functional: PBEX(Automatically generated (new) PBEX)                          Gradient terms: 1
 Functional: PBEC(Automatically generated (new) PBEC)                          Gradient terms: 1
 Use libxcgrid:  F
 Use grid at  1800.2


 Exact exchange will be calculated, factor:  0.2500

 Functional: PBEX                      Factor:  0.7500
 Functional: PBEC                      Factor:  1.0000

  234265 words reserved for DFT integration

 PROGRAM * UKS-SCF (Unrestricted Kohn-Sham)     Authors: W. Meyer, H.-J. Werner, P.J. Knowles, 1993

 NUMBER OF ELECTRONS:      28+   27-    SPACE SYMMETRY=1    SPIN SYMMETRY: Doublet 
 CONVERGENCE THRESHOLDS:    1.00E-06 (Density)    1.00E-06 (Energy)
 INTEGRAL THRESHOLDS:       1.00E-11 (Initial)    1.00E-11 (Final)
 MAX. NUMBER OF ITERATIONS:       60
 INTERPOLATION TYPE:            DIIS
 INTERPOLATION STEPS:              2 (START)      1 (STEP)
 LEVEL SHIFTS:                 -0.20 (ALPHA)  -0.20 (BETA) 



 Use fine grid record 1800.2 for energy threshold  1.0D-06
 Molecular orbitals read from record     2204.2  Type=UKS/ALPHA (state 1.1)
 Molecular orbitals read from record     2204.2  Type=UKS/BETA (state 1.1)

 Molecular orbital dump at record        2205.2

 Initial alpha occupation  28
 Initial beta  occupation  27

 Direct Fock-matrix evaluation.        Author: H.-J. Werner (1996)

 Integral Threshold:                  0.1D-10

 ITERATION   DDIFF            GRAD            ENERGY        2-EL.EN.            DIPOLE MOMENTS         DIIS   CPU(IT)  CPU(TOT)
    1      0.000D+00      0.000D+00      -290.22539994    816.413834    0.42254    0.09737    1.57853    0     38.5     38.5
    2      0.334D-04      0.728D-05      -290.22540121    816.410547    0.42248    0.09738    1.57846    1     35.9     74.4
    3      0.113D-04      0.125D-05      -290.22540127    816.411520    0.42242    0.09739    1.57837    2     35.2    109.6
    4      0.417D-05      0.232D-06      -290.22540128    816.411294    0.42238    0.09740    1.57827    3     33.9    143.5
    5      0.103D-05      0.878D-07      -290.22540128    816.411646    0.42238    0.09740    1.57826    4     32.5    175.9
    6      0.278D-06      0.571D-07      -290.22540128    816.411595    0.42236    0.09740    1.57821    5     30.9    206.8
    7      0.798D-07      0.353D-07      -290.22540128    816.411578    0.42237    0.09741    1.57821    6     29.2    236.0

 Final alpha occupancy:  28
 Final beta  occupancy:  27

 !UKS STATE  1.1 Energy              -290.225401280340
 Nuclear energy                       281.19686931
 One-electron energy                 -946.63525384
 Two-electron energy                  408.20578919
 Density functional                   -32.99280594     PBEX=-41.64602702 PBEC= -1.75828567
 Virial quotient                       -1.00559898
 !UKS STATE  1.1 Dipole moment          0.42236802     0.09740798     1.57820894
 Dipole moment /Debye                   1.07348212     0.24757017     4.01114427

 Orbital energies for positive spin:

         1.1          2.1          3.1          4.1          5.1          6.1          7.1          8.1          9.1         10.1
    -14.404533   -10.296085   -10.249057   -10.246723   -10.231407   -10.224260   -10.222324    -0.945077    -0.861333    -0.773518

        11.1         12.1         13.1         14.1         15.1         16.1         17.1         18.1         19.1         20.1
     -0.732738    -0.658662    -0.599381    -0.517104    -0.494065    -0.483771    -0.455164    -0.439819    -0.419833    -0.415119

        21.1         22.1         23.1         24.1         25.1         26.1         27.1         28.1         29.1         30.1
     -0.391167    -0.381094    -0.371109    -0.368665    -0.365596    -0.352212    -0.347751    -0.328121     0.012039     0.014986

 Orbital energies for negative spin:

         1.1          2.1          3.1          4.1          5.1          6.1          7.1          8.1          9.1         10.1
    -14.402965   -10.279865   -10.248891   -10.242587   -10.231300   -10.224171   -10.222329    -0.929302    -0.858019    -0.771096

        11.1         12.1         13.1         14.1         15.1         16.1         17.1         18.1         19.1         20.1
     -0.725024    -0.657467    -0.591920    -0.501187    -0.482525    -0.466963    -0.440768    -0.435990    -0.413669    -0.399537

        21.1         22.1         23.1         24.1         25.1         26.1         27.1         28.1         29.1         30.1
     -0.389802    -0.373896    -0.362826    -0.361874    -0.354129    -0.348631    -0.342730    -0.199012     0.024878     0.031540


 HOMO     28.1    -0.328121 =      -8.9286eV
 LUMO    -28.1    -0.199012 =      -5.4154eV
 LUMO-HOMO         0.129109 =       3.5132eV

 EXPECTATION VALUE OF S**2:             0.76435327

 Occupation number threshold for pseudo-canonical orbitals: 1.9990 (occupied), 0.0010 (virtual)

 Number of pseudo-canonical occupied orbitals per symmetry:   24
 Number of active natural orbitals per symmetry:               7

 Natural orbitals saved to record    2205.2 (Orbital set 3)

 Orbital spaces for UNO-CAS (Min. occupation: 0.020  Max. occupation: 1.980):

 Closed:       27
 Active:        1


 **********************************************************************************************************************************
 DATASETS  * FILE   NREC   LENGTH (MB)   RECORD NAMES
              1      19       35.48       500      610      700      900      950      970     1001      129      960     1100   
                                          VAR    BASINP    GEOM    SYMINP    ZMAT    AOBASIS   BASIS     P2S    ABASIS      S 
                                         1400     1410     1200     1210     1080     1600     1650     1700     1800   
                                           T        V       H0       H01     AOSYM     SMH    MOLCAS    OPER     GRID   

              2      14       35.75       700     1000      520     2100     1800     2200      520(1)  2201      520(2)  2202   
                                         GEOM     BASIS   MCVARS     RHF     GRID      UKS    MCVARS     UKS    MCVARS     UKS  
                                         1001     2203     2204     2205   
                                         BASIS     UKS      UKS      UKS  

 PROGRAMS   *        TOTAL   UKS-SCF    DF-UKS    DF-UKS       INT    DF-UKS      OPTG    DF-UKS      OPTG    DF-UKS     DF-HF
 CPU TIMES  *      5829.56    236.11    452.35     15.30      0.24      8.43   4507.62     71.39    519.70      8.71      9.29
 REAL TIME  *      5856.76 SEC
 DISK USED  *        93.13 MB
 **********************************************************************************************************************************

 Density functional group B3LYP=B88+DIRAC+LYP+VWN5
 Functional: B88(Automatically generated (new) B88)                            Gradient terms: 1
 Functional: DIRAC(Automatically generated (new) DIRAC)                        Gradient terms: 0
 Functional: LYP(Automatically generated (new) LYP)                            Gradient terms: 1
 Functional: VWN5(Automatically generated (new) VWN5)                          Gradient terms: 0
 Use libxcgrid:  F
 Use grid at  1800.2


 Exact exchange will be calculated, factor:  0.2000

 Functional: B88                       Factor:  0.7200
 Functional: DIRAC                     Factor:  0.0800
 Functional: LYP                       Factor:  0.8100
 Functional: VWN5                      Factor:  0.1900

  234265 words reserved for DFT integration

 PROGRAM * UKS-SCF (Unrestricted Kohn-Sham)     Authors: W. Meyer, H.-J. Werner, P.J. Knowles, 1993

 NUMBER OF ELECTRONS:      28+   27-    SPACE SYMMETRY=1    SPIN SYMMETRY: Doublet 
 CONVERGENCE THRESHOLDS:    1.00E-06 (Density)    1.00E-06 (Energy)
 INTEGRAL THRESHOLDS:       1.00E-11 (Initial)    1.00E-11 (Final)
 MAX. NUMBER OF ITERATIONS:       60
 INTERPOLATION TYPE:            DIIS
 INTERPOLATION STEPS:              2 (START)      1 (STEP)
 LEVEL SHIFTS:                 -0.20 (ALPHA)  -0.20 (BETA) 



 Use fine grid record 1800.2 for energy threshold  1.0D-06
 Molecular orbitals read from record     2205.2  Type=UKS/ALPHA (state 1.1)
 Molecular orbitals read from record     2205.2  Type=UKS/BETA (state 1.1)

 Molecular orbital dump at record        2206.2

 Initial alpha occupation  28
 Initial beta  occupation  27

 Direct Fock-matrix evaluation.        Author: H.-J. Werner (1996)

 Integral Threshold:                  0.1D-10

 ITERATION   DDIFF            GRAD            ENERGY        2-EL.EN.            DIPOLE MOMENTS         DIIS   CPU(IT)  CPU(TOT)
    1      0.000D+00      0.000D+00      -290.39775957    820.590463    0.42237    0.09741    1.57821    0     38.6     38.6
    2      0.105D-02      0.392D-03      -290.40187565    820.951490    0.42775    0.09930    1.59836    1     37.5     76.1
    3      0.178D-03      0.619D-04      -290.40207907    820.631192    0.42413    0.09434    1.59116    2     36.7    112.8
    4      0.780D-04      0.292D-04      -290.40211355    820.667465    0.43018    0.09852    1.60974    3     36.2    149.0
    5      0.517D-04      0.162D-04      -290.40212807    820.670622    0.42785    0.09427    1.60687    4     35.9    184.8
    6      0.301D-04      0.106D-04      -290.40213578    820.646742    0.42976    0.09442    1.61423    5     35.6    220.4
    7      0.178D-04      0.382D-05      -290.40214010    820.655202    0.42997    0.09316    1.61764    6     35.5    255.9
    8      0.916D-05      0.231D-05      -290.40214208    820.649939    0.43028    0.09216    1.62035    7     34.9    290.8
    9      0.585D-05      0.142D-05      -290.40214269    820.651370    0.43021    0.09156    1.62122    8     34.5    325.3
   10      0.213D-05      0.565D-06      -290.40214277    820.651617    0.43013    0.09150    1.62112    9     33.5    358.7
   11      0.131D-05      0.312D-06      -290.40214279    820.651715    0.42999    0.09145    1.62062    9     32.8    391.5
   12      0.839D-06      0.146D-06      -290.40214280    820.651687    0.42992    0.09148    1.62031    9     32.5    424.1
   13      0.354D-06      0.692D-07      -290.40214280    820.651654    0.42990    0.09148    1.62023    9     31.5    455.6

 Final alpha occupancy:  28
 Final beta  occupancy:  27

 !UKS STATE  1.1 Energy              -290.402142801911
 Nuclear energy                       281.19686931
 One-electron energy                 -946.64493032
 Two-electron energy                  410.32582697
 Density functional                   -35.27990875     B88=-41.91571631 DIRAC=-37.68145997 LYP= -1.76769228 VWN5= -3.44339717
 Virial quotient                       -1.00513210
 !UKS STATE  1.1 Dipole moment          0.42989621     0.09147505     1.62023123
 Dipole moment /Debye                   1.09261562     0.23249117     4.11794729

 Orbital energies for positive spin:

         1.1          2.1          3.1          4.1          5.1          6.1          7.1          8.1          9.1         10.1
    -14.334805   -10.238466   -10.195444   -10.194480   -10.178607   -10.172630   -10.170620    -0.916908    -0.836470    -0.750839

        11.1         12.1         13.1         14.1         15.1         16.1         17.1         18.1         19.1         20.1
     -0.711557    -0.639377    -0.582261    -0.499563    -0.478202    -0.469711    -0.440471    -0.427053    -0.406147    -0.403658

        21.1         22.1         23.1         24.1         25.1         26.1         27.1         28.1         29.1         30.1
     -0.380201    -0.369789    -0.357954    -0.353471    -0.351998    -0.342432    -0.337556    -0.317535     0.006377     0.009308

 Orbital energies for negative spin:

         1.1          2.1          3.1          4.1          5.1          6.1          7.1          8.1          9.1         10.1
    -14.332775   -10.223928   -10.195230   -10.190659   -10.178501   -10.172544   -10.170623    -0.901624    -0.833242    -0.748521

        11.1         12.1         13.1         14.1         15.1         16.1         17.1         18.1         19.1         20.1
     -0.704382    -0.638212    -0.575216    -0.486949    -0.468578    -0.453769    -0.427721    -0.423239    -0.402241    -0.386901

        21.1         22.1         23.1         24.1         25.1         26.1         27.1         28.1         29.1         30.1
     -0.378895    -0.363455    -0.348139    -0.346644    -0.343513    -0.339177    -0.333481    -0.207710     0.016614     0.023281


 HOMO     28.1    -0.317535 =      -8.6406eV
 LUMO    -28.1    -0.207710 =      -5.6521eV
 LUMO-HOMO         0.109825 =       2.9885eV

 EXPECTATION VALUE OF S**2:             0.76044716

 Occupation number threshold for pseudo-canonical orbitals: 1.9990 (occupied), 0.0010 (virtual)

 Number of pseudo-canonical occupied orbitals per symmetry:   24
 Number of active natural orbitals per symmetry:               7

 Natural orbitals saved to record    2206.2 (Orbital set 3)

 Orbital spaces for UNO-CAS (Min. occupation: 0.020  Max. occupation: 1.980):

 Closed:       27
 Active:        1


 **********************************************************************************************************************************
 DATASETS  * FILE   NREC   LENGTH (MB)   RECORD NAMES
              1      19       35.48       500      610      700      900      950      970     1001      129      960     1100   
                                          VAR    BASINP    GEOM    SYMINP    ZMAT    AOBASIS   BASIS     P2S    ABASIS      S 
                                         1400     1410     1200     1210     1080     1600     1650     1700     1800   
                                           T        V       H0       H01     AOSYM     SMH    MOLCAS    OPER     GRID   

              2      15       41.61       700     1000      520     2100     1800     2200      520(1)  2201      520(2)  2202   
                                         GEOM     BASIS   MCVARS     RHF     GRID      UKS    MCVARS     UKS    MCVARS     UKS  
                                         1001     2203     2204     2205     2206   
                                         BASIS     UKS      UKS      UKS      UKS  

 PROGRAMS   *        TOTAL   UKS-SCF   UKS-SCF    DF-UKS    DF-UKS       INT    DF-UKS      OPTG    DF-UKS      OPTG    DF-UKS
 CPU TIMES  *      6285.24    455.68    236.11    452.35     15.30      0.24      8.43   4507.62     71.39    519.70      8.71
 REAL TIME  *      6312.51 SEC
 DISK USED  *       101.67 MB
 **********************************************************************************************************************************

 UB3LYP/TZVP//CF-UKS/SVP energy=   -290.402142801911

         UKS-SCF         UKS-SCF          DF-UKS          DF-UKS          DF-UKS    OPTG(DF-UKS)          DF-UKS    OPTG(DF-UKS)
   -290.40214280   -290.22540128   -290.22563974   -290.19621727   -289.87475673   -289.91124499   -289.91016303   -289.87614010
 **********************************************************************************************************************************
 Molpro calculation terminated with 2 warning(s)
