
 Primary working directories    : /mnt/storage/home/lb17101/scratch/1377552/molpro.vr0rMcOqT3
 Secondary working directories  : /mnt/storage/home/lb17101/scratch/1377552/molpro.vr0rMcOqT3
 Wavefunction directory         : /mnt/storage/home/lb17101/optimizations/10/
 Main file repository           : /mnt/storage/home/lb17101/optimizations/10/

 id        : simonbennie

 Nodes                   nprocs
 compute074.bc4.acrc.priv    1

 Using customized tuning parameters: mindgm=1; mindgv=20; mindgc=4; mindgr=1; noblas=0; minvec=7
 default implementation of scratch files=df  


 Variables initialized (924), CPU time= 0.00 sec
 memory,536,m
 
 geomtyp=xyz
 
 nosym
 noorient
 gdirect
 angstrom
 
 geometry=input.xyz
 Including file /mnt/storage/home/lb17101/optimizations/10/input.xyz
 
 set,charge=0
 
 basis=svp
 df-hf
 {cf-uks,pbe;}
 {optg,method=slrf,maxiter=50;
 constraint,1.100,angstrom,bond,atoms=[H10,C5]
 constraint,3.000,angstrom,bond,atoms=[H10,C17]
 constraint,180,deg,angle,atoms=[C5,H10,C17]
 {slopt;}}
 {cf-uks,pbe0;}
 {optg,method=slrf,maxiter=50;
 constraint,1.100,angstrom,bond,atoms=[H10,C5]
 constraint,3.000,angstrom,bond,atoms=[H10,C17]
 constraint,180,deg,angle,atoms=[C5,H10,C17]
 {slopt;}}
 {cf-uks,pbe;}
 basis=tzvp
 {cf-uks,pbe;}
 {cf-uks,pbe0;}
 {uks,pbe0;}
 {uks,b3lyp;}
 Commands  initialized (760), CPU time= 0.00 sec, 616 directives.
 Default parameters read. Elapsed time= 0.04 sec

 Checking input...
 Passed
1


                                         ***  PROGRAM SYSTEM MOLPRO  ***
                                       Copyright, TTI GmbH Stuttgart, 2015
                                    Version 2018.1 linked Oct 16 2018 14:32:03


 **********************************************************************************************************************************
 LABEL *                                                                                 
  64 bit serial version                                                                  DATE: 09-Nov-18          TIME: 13:17:26  
 **********************************************************************************************************************************

 SHA1:             d673ad554fd0a1ae99daa449513f8b88cca0f763
 **********************************************************************************************************************************
 SETTING GEOMTYP        =    XYZ

 Variable memory set to  536000000 words,  buffer space 

 ZSYMEL=NOSYM
 ZUNIT=ANG

 SETTING CHARGE         =     0.00000000D+00                                  
 SETTING BASIS          =    SVP


 Recomputing integrals since basis changed


 Using spherical harmonics

 Library entry C      S def2-SVP             selected for orbital group  1
 Library entry C      P def2-SVP             selected for orbital group  1
 Library entry C      D def2-SVP             selected for orbital group  1
 Library entry H      S def2-SVP             selected for orbital group  2
 Library entry H      P def2-SVP             selected for orbital group  2
 Library entry N      S def2-SVP             selected for orbital group  8
 Library entry N      P def2-SVP             selected for orbital group  8
 Library entry N      D def2-SVP             selected for orbital group  8


 PROGRAM * SEWARD (Integral evaluation for generally contracted gaussian basis sets)     Author: Roland Lindh, 1990

 Geometry written to block  1 of record 700


 Point group  C1  



 ATOMIC COORDINATES

 NR  ATOM    CHARGE       X              Y              Z

   1  C0      6.00  -15.641370747    4.440507963   -0.049754099
   2  C1      6.00  -12.737339891    4.465637486   -0.140167375
   3  H2      1.00  -16.452984854    4.362009759   -1.983315422
   4  H3      1.00  -16.391562141    6.159377510    0.885856613
   5  H4      1.00  -16.350492719    2.775164051    1.006098957
   6  C5      6.00  -11.740713253    6.806784179   -1.363174032
   7  C6      6.00  -11.691868632    2.010595906   -1.332047513
   8  H7      1.00  -12.059131143    4.477675291    1.873635711
   9  H8      1.00  -12.816334048    8.587533046   -1.256908787
  10  H9      1.00   -9.762548968    6.938438663   -1.991254644
  11  H10     1.00  -12.760792883    6.054981588   -6.888684292
  12  H11     1.00  -12.328168648    1.913494793   -3.335824861
  13  H12     1.00  -12.605734446    0.383795421   -0.365812386
  14  C13     6.00   -8.821789553    1.708632436   -1.189530685
  15  H14     1.00   -7.807109511    3.177308591   -2.288390688
  16  H15     1.00   -8.219027992   -0.147593098   -1.950649422
  17  H16     1.00   -8.140726956    1.825765183    0.791880384
  18  C17     6.00  -12.982218668    5.632782742   -8.912040694
  19  N18     7.00  -13.226364779    5.162744798  -11.053985496

 Bond lengths in Bohr (Angstrom)

 1-2  2.905546638  1-3  2.098461058  1-4  2.095869044  1-5  2.095483235  2-6  2.823114907
     ( 1.537549066)     ( 1.110457770)     ( 1.109086135)     ( 1.108881974)     ( 1.493928072)

  2- 7  2.922467721   2- 8  2.124974090   6- 9  2.083103196   6-10  2.079651918   7-12  2.104621106
       ( 1.546503317)       ( 1.124487862)       ( 1.102330739)       ( 1.100504402)       ( 1.113717527)

  7-13  2.101247455   7-14  2.889437125  11-18  2.078762221  14-15  2.096205750  14-16  2.094802249
       ( 1.111932268)       ( 1.529024279)       ( 1.100033595)       ( 1.109264312)       ( 1.108521612)

 14-17  2.098465193  18-19  2.206461087
       ( 1.110459958)       ( 1.167608924)

 Bond angles

  1-2-6  111.93115943   1-2-7  111.28297678   1-2-8  106.83125183   2-1-3  110.99066727

  2- 1- 4  111.37985148   2- 1- 5  111.14817415   2- 6- 9  120.29991886   2- 6-10  121.27389130

  2- 7-12  108.59604258   2- 7-13  107.89393921   2- 7-14  115.02504750   3- 1- 4  107.67204096

  3-1-5  107.67777862   4-1-5  107.80128520   6-2-7  113.18328669   6-2-8  107.04834525

  7- 2- 8  106.08604597   7-14-15  112.44125475   7-14-16  111.13069525   7-14-17  111.29175153

  9- 6-10  116.90071828  11-18-19  179.36634029  12- 7-13  105.69971320  12- 7-14  110.02606719

 13- 7-14  109.17241960  15-14-16  106.92329474  15-14-17  107.38331531  16-14-17  107.40616309

 NUCLEAR CHARGE:                   55
 NUMBER OF PRIMITIVE AOS:         259
 NUMBER OF SYMMETRY AOS:          252
 NUMBER OF CONTRACTIONS:          158   (  158A   )
 NUMBER OF CORE ORBITALS:           7   (    7A   )
 NUMBER OF VALENCE ORBITALS:       40   (   40A   )


 NUCLEAR REPULSION ENERGY  265.52795116


 Eigenvalues of metric

         1 0.183E-02 0.359E-02 0.451E-02 0.603E-02 0.838E-02 0.182E-01 0.195E-01 0.203E-01


 OPERATOR DM      FOR CENTER  0  COORDINATES:    0.000000    0.000000    0.000000


 **********************************************************************************************************************************
 DATASETS  * FILE   NREC   LENGTH (MB)   RECORD NAMES
              1      18       31.21       500      610      700      900      950      970     1000      129      960     1100   
                                          VAR    BASINP    GEOM    SYMINP    ZMAT    AOBASIS   BASIS     P2S    ABASIS      S 
                                         1400     1410     1200     1210     1080     1600     1650     1700   
                                           T        V       H0       H01     AOSYM     SMH    MOLCAS    OPER   

 PROGRAMS   *        TOTAL       INT
 CPU TIMES  *         0.43      0.32
 REAL TIME  *         1.18 SEC
 DISK USED  *        31.83 MB
 **********************************************************************************************************************************


 PROGRAM * RHF-SCF (OPEN SHELL)       Authors: W. Meyer, H.-J. Werner


 NUMBER OF ELECTRONS:      28+   27-    SPACE SYMMETRY=1    SPIN SYMMETRY: Doublet 
 CONVERGENCE THRESHOLDS:    1.00E-06 (Density)    1.00E-07 (Energy)
 INTEGRAL THRESHOLDS:       1.00E-11 (Initial)    1.00E-11 (Final)
 MAX. NUMBER OF ITERATIONS:       60
 INTERPOLATION TYPE:            DIIS
 INTERPOLATION STEPS:              2 (START)      1 (STEP)
 LEVEL SHIFTS:                 -0.60 (CLOSED) -0.30 (OPEN) 




 Basis set DEF2-SVP/JKFIT generated.     Number of basis functions:   560 

 Orbital guess generated from atomic densities. Full valence occupancy:   28
 Using density fitting in orbital guess

 Coulomb and exchange fitting
 Thresholds for fitting:       THRAO_COUL= 1.0D-14    THRAO_EXCH= 1.0D-12    THRMO= 1.0D-11    THRPROD= 1.0D-11    THRASM= 1.0D-11
                               THR2HLF=    1.0D-11

 Molecular orbital dump at record        2100.2

 Initial alpha occupancy:  28
 Initial beta  occupancy:  27
 Wave function symmetry:    1

 ITERATION   DDIFF            GRAD            ENERGY        2-EL.EN.            DIPOLE MOMENTS         DIIS   CPU(IT)  CPU(TOT)  ORB.
    1      0.000D+00      0.000D+00      -288.25645383    722.794989    0.18962    0.18373    2.07818    0      0.7      1.5     start
    2      0.000D+00      0.401D-02      -288.33272397    720.251142    0.15608    0.11928    1.55248    1      0.7      2.2     diag,B
    3      0.299D-02      0.157D-02      -288.34776947    720.373121    0.17027    0.15909    1.58025    2      0.7      2.9     diag,B
    4      0.149D-02      0.746D-03      -288.35372036    720.335213    0.17121    0.16652    1.51448    3      0.7      3.5     diag,B
    5      0.126D-02      0.205D-03      -288.35432294    720.307194    0.17304    0.17513    1.50618    4      0.7      4.2     diag,B
    6      0.483D-03      0.732D-04      -288.35441618    720.278524    0.17353    0.17879    1.50188    5      0.7      4.8     diag,B
    7      0.216D-03      0.221D-04      -288.35442487    720.270865    0.17353    0.17940    1.50022    6      0.7      5.5     fixocc
    8      0.691D-04      0.674D-05      -288.35442573    720.270536    0.17343    0.17928    1.49946    7      0.7      6.2     diag,B
    9      0.255D-04      0.221D-05      -288.35442585    720.270735    0.17338    0.17914    1.49927    8      0.7      6.8     diag,B
   10      0.952D-05      0.690D-06      -288.35442586    720.270891    0.17336    0.17910    1.49924    9      0.7      7.5     orth
   11      0.274D-05      0.291D-06      -288.35442586    720.270887    0.17335    0.17908    1.49924    9      0.7      8.2     diag,B
   12      0.139D-05      0.107D-06      -288.35442586    720.270874    0.17335    0.17908    1.49923    9      0.7      8.8     diag,B
   13      0.568D-06      0.380D-07      -288.35442586    720.270869    0.17335    0.17908    1.49923    0      0.7      9.5     orth

 Final alpha occupancy:  28
 Final beta  occupancy:  27

 !RHF STATE  1.1 Energy              -288.354425860902
 Nuclear energy                       265.52795116
 One-electron energy                 -914.01781158
 Two-electron energy                  360.13543455
 Virial quotient                       -1.00689725
 !RHF STATE  1.1 Dipole moment          0.17334716     0.17907993     1.49923217
 Dipole moment /Debye                   0.44057568     0.45514596     3.81041850

 Orbital energies:

         1.1          2.1          3.1          4.1          5.1          6.1          7.1          8.1          9.1         10.1
    -15.598977   -11.299413   -11.247726   -11.243403   -11.239307   -11.236487   -11.234455    -1.211737    -1.090196    -0.989546

        11.1         12.1         13.1         14.1         15.1         16.1         17.1         18.1         19.1         20.1
     -0.906750    -0.849458    -0.786725    -0.753575    -0.640503    -0.627685    -0.590293    -0.578661    -0.571756    -0.553396

        21.1         22.1         23.1         24.1         25.1         26.1         27.1         28.1         29.1         30.1
     -0.523029    -0.509800    -0.487434    -0.487111    -0.484821    -0.476290    -0.468021    -0.373833     0.152209     0.172455


 HOMO     28.1    -0.373833 =     -10.1725eV
 LUMO     29.1     0.152209 =       4.1418eV
 LUMO-HOMO         0.526042 =      14.3143eV


 **********************************************************************************************************************************
 DATASETS  * FILE   NREC   LENGTH (MB)   RECORD NAMES
              1      18       31.21       500      610      700      900      950      970     1000      129      960     1100   
                                          VAR    BASINP    GEOM    SYMINP    ZMAT    AOBASIS   BASIS     P2S    ABASIS      S 
                                         1400     1410     1200     1210     1080     1600     1650     1700   
                                           T        V       H0       H01     AOSYM     SMH    MOLCAS    OPER   

              2       4        3.88       700     1000      520     2100   
                                         GEOM     BASIS   MCVARS     RHF  

 PROGRAMS   *        TOTAL     DF-HF       INT
 CPU TIMES  *         9.95      9.52      0.32
 REAL TIME  *        12.47 SEC
 DISK USED  *        68.27 MB
 **********************************************************************************************************************************

 Density functional group PBE=PBEX+PBEC
 Functional: PBEX(Automatically generated (new) PBEX)                          Gradient terms: 1
 Functional: PBEC(Automatically generated (new) PBEC)                          Gradient terms: 1
 Use libxcgrid:  F
 Use grid at  1800.2

 Functional: PBEX                      Factor:  1.0000
 Functional: PBEC                      Factor:  1.0000

 Generated new metagrid on record  1800.2 with target accuracy 1.0D-06 and 64116 points in CPU time    1.2
 Computed new grid on record 1800.1 in CPU time    1.4
  129907 words reserved for DFT integration

 PROGRAM * UKS-SCF (Unrestricted Kohn-Sham)     Authors: W. Meyer, H.-J. Werner, P.J. Knowles, 1993

 NUMBER OF ELECTRONS:      28+   27-    SPACE SYMMETRY=1    SPIN SYMMETRY: Doublet 
 CONVERGENCE THRESHOLDS:    1.00E-06 (Density)    1.00E-06 (Energy)
 INTEGRAL THRESHOLDS:       1.00E-11 (Initial)    1.00E-11 (Final)
 MAX. NUMBER OF ITERATIONS:       60
 INTERPOLATION TYPE:            DIIS
 INTERPOLATION STEPS:              2 (START)      1 (STEP)
 LEVEL SHIFTS:                 -0.20 (ALPHA)  -0.20 (BETA) 



 Use fine grid record 1800.2 for energy threshold  1.0D-06

 Basis set DEF2-SVP/JFIT generated.      Number of basis functions:   475 
 Coulomb fitting
 Screening thresholds:    THRAO_COUL= 1.0D-14    THRAO= 1.0D-12    THROV= 1.0D-12

 Reserved 6 MW to cache 100.0% of significant integrals. CPU: 0.2 sec

 Molecular orbitals read from record     2100.2  Type=RHF/CANONICAL (state 1.1)

 Molecular orbital dump at record        2200.2

 Initial alpha occupation  28
 Initial beta  occupation  27

 ITERATION    DDIFF          GRAD             ENERGY        2-EL.EN.            DIPOLE MOMENTS         DIIS  CPU(IT) CPU(TOT)
    1      0.000D+00      0.000D+00      -289.85713932    803.747086    0.17335    0.17908    1.49923    0      0.6      0.8
    2      0.411D-02      0.217D-02      -289.89796926    806.756483    0.15414    0.12370    1.39917    1      0.6      1.4
    3      0.133D-02      0.435D-03      -289.90136315    805.382566    0.15121    0.11352    1.38265    2      0.5      1.9
    4      0.689D-03      0.179D-03      -289.90220015    805.890412    0.14684    0.09623    1.36471    3      0.5      2.5
    5      0.274D-03      0.759D-04      -289.90230653    805.825909    0.15160    0.10183    1.40752    4      0.5      3.0
    6      0.124D-03      0.794D-04      -289.90238831    805.763459    0.14856    0.09378    1.38210    5      0.6      3.6
    7      0.752D-04      0.200D-04      -289.90240258    805.776039    0.14924    0.09393    1.38971    6      0.5      4.1
    8      0.278D-04      0.770D-05      -289.90240492    805.777096    0.14922    0.09268    1.39049    7      0.5      4.7
    9      0.116D-04      0.258D-05      -289.90240522    805.777810    0.14932    0.09290    1.39089    8      0.5      5.2
   10      0.447D-05      0.118D-05      -289.90240526    805.776928    0.14932    0.09277    1.39116    8      0.5      5.8
   11      0.126D-05      0.265D-06      -289.90240527    805.776994    0.14932    0.09275    1.39119    8      0.5      6.3
   12      0.302D-06      0.116D-06      -289.90240527    805.777045    0.14932    0.09277    1.39118    8      0.6      6.9
   13      0.159D-06      0.578D-07      -289.90240527    805.777001    0.14932    0.09277    1.39119    7      0.5      7.4

 Final alpha occupancy:  28
 Final beta  occupancy:  27

 !UKS STATE  1.1 Energy              -289.902405266375
 Nuclear energy                       265.52795116
 One-electron energy                 -915.05336432
 Two-electron energy                  402.88850031
 Density functional                   -43.26549242     PBEX=-41.50794834 PBEC= -1.75754408
 Virial quotient                       -1.01207402
 !UKS STATE  1.1 Dipole moment          0.14932416     0.09276881     1.39118584
 Dipole moment /Debye                   0.37951930     0.23577934     3.53581010

 Orbital energies for positive spin:

         1.1          2.1          3.1          4.1          5.1          6.1          7.1          8.1          9.1         10.1
    -14.009341    -9.946098    -9.919312    -9.918534    -9.906280    -9.900443    -9.898445    -0.818899    -0.741910    -0.664369

        11.1         12.1         13.1         14.1         15.1         16.1         17.1         18.1         19.1         20.1
     -0.611917    -0.562408    -0.528967    -0.499305    -0.424594    -0.414627    -0.386898    -0.374491    -0.354350    -0.330846

        21.1         22.1         23.1         24.1         25.1         26.1         27.1         28.1         29.1         30.1
     -0.320372    -0.317255    -0.315641    -0.315498    -0.308238    -0.294814    -0.292682    -0.184519    -0.022294    -0.019275

 Orbital energies for negative spin:

         1.1          2.1          3.1          4.1          5.1          6.1          7.1          8.1          9.1         10.1
    -14.009338    -9.945938    -9.919214    -9.906287    -9.905846    -9.900190    -9.898466    -0.818823    -0.736845    -0.662007

        11.1         12.1         13.1         14.1         15.1         16.1         17.1         18.1         19.1         20.1
     -0.595945    -0.559059    -0.528234    -0.491758    -0.420197    -0.410081    -0.384630    -0.373367    -0.350193    -0.328897

        21.1         22.1         23.1         24.1         25.1         26.1         27.1         28.1         29.1         30.1
     -0.317669    -0.317143    -0.315473    -0.315390    -0.304102    -0.292342    -0.290218    -0.106515    -0.022043    -0.019103


 HOMO     28.1    -0.184519 =      -5.0210eV
 LUMO    -28.1    -0.106515 =      -2.8984eV
 LUMO-HOMO         0.078003 =       2.1226eV

 EXPECTATION VALUE OF S**2:             0.75335202

 Occupation number threshold for pseudo-canonical orbitals: 1.9990 (occupied), 0.0010 (virtual)

 Number of pseudo-canonical occupied orbitals per symmetry:   26
 Number of active natural orbitals per symmetry:               3

 Natural orbitals saved to record    2200.2 (Orbital set 3)

 Orbital spaces for UNO-CAS (Min. occupation: 0.020  Max. occupation: 1.980):

 Closed:       27
 Active:        1


 **********************************************************************************************************************************
 DATASETS  * FILE   NREC   LENGTH (MB)   RECORD NAMES
              1      19       33.26       500      610      700      900      950      970     1000      129      960     1100   
                                          VAR    BASINP    GEOM    SYMINP    ZMAT    AOBASIS   BASIS     P2S    ABASIS      S 
                                         1400     1410     1200     1210     1080     1600     1650     1700     1800   
                                           T        V       H0       H01     AOSYM     SMH    MOLCAS    OPER     GRID   

              2       6        7.61       700     1000      520     2100     1800     2200   
                                         GEOM     BASIS   MCVARS     RHF     GRID      UKS  

 PROGRAMS   *        TOTAL    DF-UKS     DF-HF       INT
 CPU TIMES  *        18.75      8.79      9.52      0.32
 REAL TIME  *        21.43 SEC
 DISK USED  *        68.27 MB
 **********************************************************************************************************************************


 PROGRAM * OPT (Geometry optimization)     Authors: F. Eckert and H.-J. Werner


 BFGS update of hessian


********** USER DEFINED INT/FIX/CONSTRAINTS ****************

List of primitive internal coordinates

     N      Name     Type   Natoms   Atom list

     1    Bo0001     Bond        2      H10  C5  
     2    Bo0002     Bond        2      H10  C17 
     3    An0001     Angle       3      C5   H10  C17 

List of user defined internal/fixed coordinates and constraints

- - - - - - - - - - - - - - - - - - - - - - - - - - - - - - - - - 
    N      Name   Type      Pname     Coeff       Value   Unit
- - - - - - - - - - - - - - - - - - - - - - - - - - - - - - - - - 
    1    Cns001    Con     Bo0001     1.000     1.10000 Angstrom
- - - - - - - - - - - - - - - - - - - - - - - - - - - - - - - - - 
    2    Cns002    Con     Bo0002     1.000     3.00000 Angstrom
- - - - - - - - - - - - - - - - - - - - - - - - - - - - - - - - - 
    3    Cns003    Con     An0001     1.000   180.00000   Degree
- - - - - - - - - - - - - - - - - - - - - - - - - - - - - - - - - 


******************************************************************



 *** Long output written to logfile /mnt/storage/home/lb17101/optimizations/10/10_1.10_3.00.log ***


 Geometry optimization using default procedure for command CF-UKS-SCF

 Geometry written to block  1 of record 700

 SLAPAF optimizer by R. Lindh and Ignacio F. Galvan entered

 Constraints section
ConstraintsConstraintsConstraintsConstraintsConstraintsConstraintsConstraintsConstraintsConstraintsConstraints
ConstraintsConstraintsConstraintsConstraintsConstraintsConstraintsConstraintsConstraintsConstraintsConstraints
Constraints                                                                                        Constraints
Constraints                                 C O N S T R A I N T S                                  Constraints
Constraints                                                                                        Constraints

************************************************************************************************************************
BO0001 = BOND       H10   C5
BO0002 = BOND       H10   C17
AN0001 = ANGLE      C5    H10   C17
VALUES
BO0001 =      1.10000000 ANGSTROM
BO0002 =      3.00000000 ANGSTROM
AN0001 =    180.00000000 DEGREE
************************************************************************************************************************


 *************************************************************
 * Values of the primitive constraints                       *
 *************************************************************
 BO0001   : Bond Length=  2.999881 / Angstrom  5.668953 / bohr
 BO0002   : Bond Length=  1.100034 / Angstrom  2.078762 / bohr
 AN0001   : Angle=      174.1655   / Degree    3.039761 / rad

 *******************************************
 * Values of the constraints   / au or rad *
 *******************************************
   Label        C         C0
 Cns001      5.668953  2.078699
 Cns002      2.078762  5.669178
 Cns003      3.039761  3.141593


 ITER.   ENERGY(OLD)    ENERGY(NEW)      DE          GRADMAX     GRADNORM    GRADRMS     STEPMAX     STEPLEN     STEPRMS   CPU-time
   1  -289.90240527  -289.90062398     0.00178129  0.00679270  0.00902195  0.00119499  0.28772564  0.88005333  0.01543953      9.96

 Constraints section
ConstraintsConstraintsConstraintsConstraintsConstraintsConstraintsConstraintsConstraintsConstraintsConstraints
ConstraintsConstraintsConstraintsConstraintsConstraintsConstraintsConstraintsConstraintsConstraintsConstraints
Constraints                                                                                        Constraints
Constraints                                 C O N S T R A I N T S                                  Constraints
Constraints                                                                                        Constraints

************************************************************************************************************************
BO0001 = BOND       H10   C5
BO0002 = BOND       H10   C17
AN0001 = ANGLE      C5    H10   C17
VALUES
BO0001 =      1.10000000 ANGSTROM
BO0002 =      3.00000000 ANGSTROM
AN0001 =    180.00000000 DEGREE
************************************************************************************************************************


 *************************************************************
 * Values of the primitive constraints                       *
 *************************************************************
 BO0001   : Bond Length=  2.977505 / Angstrom  5.626669 / bohr
 BO0002   : Bond Length=  1.122451 / Angstrom  2.121126 / bohr
 AN0001   : Angle=      174.1924   / Degree    3.040232 / rad

 *******************************************
 * Values of the constraints   / au or rad *
 *******************************************
   Label        C         C0
 Cns001      5.626669  2.078699
 Cns002      2.121126  5.669178
 Cns003      3.040232  3.141593

   2  -289.90062398  -289.89822934     0.00239464  0.03227337  0.05079570  0.00672805  0.12558335  0.39797899  0.00698209     19.37

 Constraints section
ConstraintsConstraintsConstraintsConstraintsConstraintsConstraintsConstraintsConstraintsConstraintsConstraints
ConstraintsConstraintsConstraintsConstraintsConstraintsConstraintsConstraintsConstraintsConstraintsConstraints
Constraints                                                                                        Constraints
Constraints                                 C O N S T R A I N T S                                  Constraints
Constraints                                                                                        Constraints

************************************************************************************************************************
BO0001 = BOND       H10   C5
BO0002 = BOND       H10   C17
AN0001 = ANGLE      C5    H10   C17
VALUES
BO0001 =      1.10000000 ANGSTROM
BO0002 =      3.00000000 ANGSTROM
AN0001 =    180.00000000 DEGREE
************************************************************************************************************************


 *************************************************************
 * Values of the primitive constraints                       *
 *************************************************************
 BO0001   : Bond Length=  2.931719 / Angstrom  5.540146 / bohr
 BO0002   : Bond Length=  1.168197 / Angstrom  2.207572 / bohr
 AN0001   : Angle=      174.3255   / Degree    3.042553 / rad

 *******************************************
 * Values of the constraints   / au or rad *
 *******************************************
   Label        C         C0
 Cns001      5.540146  2.078699
 Cns002      2.207572  5.669178
 Cns003      3.042553  3.141593

   3  -289.89822934  -289.89773427     0.00049507  0.05530237  0.07640746  0.01012042  0.12551537  0.36222262  0.00635478     28.76

 Constraints section
ConstraintsConstraintsConstraintsConstraintsConstraintsConstraintsConstraintsConstraintsConstraintsConstraints
ConstraintsConstraintsConstraintsConstraintsConstraintsConstraintsConstraintsConstraintsConstraintsConstraints
Constraints                                                                                        Constraints
Constraints                                 C O N S T R A I N T S                                  Constraints
Constraints                                                                                        Constraints

************************************************************************************************************************
BO0001 = BOND       H10   C5
BO0002 = BOND       H10   C17
AN0001 = ANGLE      C5    H10   C17
VALUES
BO0001 =      1.10000000 ANGSTROM
BO0002 =      3.00000000 ANGSTROM
AN0001 =    180.00000000 DEGREE
************************************************************************************************************************


 *************************************************************
 * Values of the primitive constraints                       *
 *************************************************************
 BO0001   : Bond Length=  2.924870 / Angstrom  5.527203 / bohr
 BO0002   : Bond Length=  1.175041 / Angstrom  2.220506 / bohr
 AN0001   : Angle=      174.3463   / Degree    3.042917 / rad

 *******************************************
 * Values of the constraints   / au or rad *
 *******************************************
   Label        C         C0
 Cns001      5.527203  2.078699
 Cns002      2.220506  5.669178
 Cns003      3.042917  3.141593

   4  -289.89773427  -289.89690903     0.00082524  0.05648189  0.07832451  0.01037434  0.10445765  0.29282267  0.00513724     38.12

 Constraints section
ConstraintsConstraintsConstraintsConstraintsConstraintsConstraintsConstraintsConstraintsConstraintsConstraints
ConstraintsConstraintsConstraintsConstraintsConstraintsConstraintsConstraintsConstraintsConstraintsConstraints
Constraints                                                                                        Constraints
Constraints                                 C O N S T R A I N T S                                  Constraints
Constraints                                                                                        Constraints

************************************************************************************************************************
BO0001 = BOND       H10   C5
BO0002 = BOND       H10   C17
AN0001 = ANGLE      C5    H10   C17
VALUES
BO0001 =      1.10000000 ANGSTROM
BO0002 =      3.00000000 ANGSTROM
AN0001 =    180.00000000 DEGREE
************************************************************************************************************************


 *************************************************************
 * Values of the primitive constraints                       *
 *************************************************************
 BO0001   : Bond Length=  2.915824 / Angstrom  5.510110 / bohr
 BO0002   : Bond Length=  1.184086 / Angstrom  2.237599 / bohr
 AN0001   : Angle=      174.3741   / Degree    3.043402 / rad

 *******************************************
 * Values of the constraints   / au or rad *
 *******************************************
   Label        C         C0
 Cns001      5.510110  2.078699
 Cns002      2.237599  5.669178
 Cns003      3.043402  3.141593

   5  -289.89690903  -289.89549292     0.00141611  0.05885413  0.08222290  0.01089069  0.12255078  0.40903382  0.00717603     47.53

 Constraints section
ConstraintsConstraintsConstraintsConstraintsConstraintsConstraintsConstraintsConstraintsConstraintsConstraints
ConstraintsConstraintsConstraintsConstraintsConstraintsConstraintsConstraintsConstraintsConstraintsConstraints
Constraints                                                                                        Constraints
Constraints                                 C O N S T R A I N T S                                  Constraints
Constraints                                                                                        Constraints

************************************************************************************************************************
BO0001 = BOND       H10   C5
BO0002 = BOND       H10   C17
AN0001 = ANGLE      C5    H10   C17
VALUES
BO0001 =      1.10000000 ANGSTROM
BO0002 =      3.00000000 ANGSTROM
AN0001 =    180.00000000 DEGREE
************************************************************************************************************************


 *************************************************************
 * Values of the primitive constraints                       *
 *************************************************************
 BO0001   : Bond Length=  2.903483 / Angstrom  5.486787 / bohr
 BO0002   : Bond Length=  1.196431 / Angstrom  2.260926 / bohr
 AN0001   : Angle=      174.4116   / Degree    3.044057 / rad

 *******************************************
 * Values of the constraints   / au or rad *
 *******************************************
   Label        C         C0
 Cns001      5.486787  2.078699
 Cns002      2.260926  5.669178
 Cns003      3.044057  3.141593

   6  -289.89549292  -289.89392564     0.00156728  0.06909976  0.09451540  0.01251887  0.13636705  0.44890451  0.00787552     57.48

 Constraints section
ConstraintsConstraintsConstraintsConstraintsConstraintsConstraintsConstraintsConstraintsConstraintsConstraints
ConstraintsConstraintsConstraintsConstraintsConstraintsConstraintsConstraintsConstraintsConstraintsConstraints
Constraints                                                                                        Constraints
Constraints                                 C O N S T R A I N T S                                  Constraints
Constraints                                                                                        Constraints

************************************************************************************************************************
BO0001 = BOND       H10   C5
BO0002 = BOND       H10   C17
AN0001 = ANGLE      C5    H10   C17
VALUES
BO0001 =      1.10000000 ANGSTROM
BO0002 =      3.00000000 ANGSTROM
AN0001 =    180.00000000 DEGREE
************************************************************************************************************************


 *************************************************************
 * Values of the primitive constraints                       *
 *************************************************************
 BO0001   : Bond Length=  2.890656 / Angstrom  5.462548 / bohr
 BO0002   : Bond Length=  1.209256 / Angstrom  2.285162 / bohr
 AN0001   : Angle=      174.4506   / Degree    3.044737 / rad

 *******************************************
 * Values of the constraints   / au or rad *
 *******************************************
   Label        C         C0
 Cns001      5.462548  2.078699
 Cns002      2.285162  5.669178
 Cns003      3.044737  3.141593

   7  -289.89392564  -289.88757951     0.00634613  0.07751498  0.10502638  0.01391108  0.32625145  1.05759619  0.01855432     67.41

 Constraints section
ConstraintsConstraintsConstraintsConstraintsConstraintsConstraintsConstraintsConstraintsConstraintsConstraints
ConstraintsConstraintsConstraintsConstraintsConstraintsConstraintsConstraintsConstraintsConstraintsConstraints
Constraints                                                                                        Constraints
Constraints                                 C O N S T R A I N T S                                  Constraints
Constraints                                                                                        Constraints

************************************************************************************************************************
BO0001 = BOND       H10   C5
BO0002 = BOND       H10   C17
AN0001 = ANGLE      C5    H10   C17
VALUES
BO0001 =      1.10000000 ANGSTROM
BO0002 =      3.00000000 ANGSTROM
AN0001 =    180.00000000 DEGREE
************************************************************************************************************************


 *************************************************************
 * Values of the primitive constraints                       *
 *************************************************************
 BO0001   : Bond Length=  2.845040 / Angstrom  5.376347 / bohr
 BO0002   : Bond Length=  1.254852 / Angstrom  2.371326 / bohr
 AN0001   : Angle=      174.5886   / Degree    3.047146 / rad

 *******************************************
 * Values of the constraints   / au or rad *
 *******************************************
   Label        C         C0
 Cns001      5.376347  2.078699
 Cns002      2.371326  5.669178
 Cns003      3.047146  3.141593

   8  -289.88757951  -289.87855295     0.00902656  0.09137385  0.12557249  0.01663248  0.33491402  1.06602814  0.01870225     77.77

 Constraints section
ConstraintsConstraintsConstraintsConstraintsConstraintsConstraintsConstraintsConstraintsConstraintsConstraints
ConstraintsConstraintsConstraintsConstraintsConstraintsConstraintsConstraintsConstraintsConstraintsConstraints
Constraints                                                                                        Constraints
Constraints                                 C O N S T R A I N T S                                  Constraints
Constraints                                                                                        Constraints

************************************************************************************************************************
BO0001 = BOND       H10   C5
BO0002 = BOND       H10   C17
AN0001 = ANGLE      C5    H10   C17
VALUES
BO0001 =      1.10000000 ANGSTROM
BO0002 =      3.00000000 ANGSTROM
AN0001 =    180.00000000 DEGREE
************************************************************************************************************************


 *************************************************************
 * Values of the primitive constraints                       *
 *************************************************************
 BO0001   : Bond Length=  2.799476 / Angstrom  5.290243 / bohr
 BO0002   : Bond Length=  1.300449 / Angstrom  2.457493 / bohr
 AN0001   : Angle=      174.7220   / Degree    3.049474 / rad

 *******************************************
 * Values of the constraints   / au or rad *
 *******************************************
   Label        C         C0
 Cns001      5.290243  2.078699
 Cns002      2.457493  5.669178
 Cns003      3.049474  3.141593

   9  -289.87855295  -289.86769509     0.01085785  0.10113868  0.14469268  0.01916501  0.23693514  0.71800345  0.01259655     87.78

 Constraints section
ConstraintsConstraintsConstraintsConstraintsConstraintsConstraintsConstraintsConstraintsConstraintsConstraints
ConstraintsConstraintsConstraintsConstraintsConstraintsConstraintsConstraintsConstraintsConstraintsConstraints
Constraints                                                                                        Constraints
Constraints                                 C O N S T R A I N T S                                  Constraints
Constraints                                                                                        Constraints

************************************************************************************************************************
BO0001 = BOND       H10   C5
BO0002 = BOND       H10   C17
AN0001 = ANGLE      C5    H10   C17
VALUES
BO0001 =      1.10000000 ANGSTROM
BO0002 =      3.00000000 ANGSTROM
AN0001 =    180.00000000 DEGREE
************************************************************************************************************************


 *************************************************************
 * Values of the primitive constraints                       *
 *************************************************************
 BO0001   : Bond Length=  2.754022 / Angstrom  5.204347 / bohr
 BO0002   : Bond Length=  1.345939 / Angstrom  2.543455 / bohr
 AN0001   : Angle=      174.8594   / Degree    3.051872 / rad

 *******************************************
 * Values of the constraints   / au or rad *
 *******************************************
   Label        C         C0
 Cns001      5.204347  2.078699
 Cns002      2.543455  5.669178
 Cns003      3.051872  3.141593

  10  -289.86769509  -289.85949823     0.00819687  0.10210633  0.15740871  0.02084929  0.44829126  1.25302183  0.02198284     98.10

 Constraints section
ConstraintsConstraintsConstraintsConstraintsConstraintsConstraintsConstraintsConstraintsConstraintsConstraints
ConstraintsConstraintsConstraintsConstraintsConstraintsConstraintsConstraintsConstraintsConstraintsConstraints
Constraints                                                                                        Constraints
Constraints                                 C O N S T R A I N T S                                  Constraints
Constraints                                                                                        Constraints

************************************************************************************************************************
BO0001 = BOND       H10   C5
BO0002 = BOND       H10   C17
AN0001 = ANGLE      C5    H10   C17
VALUES
BO0001 =      1.10000000 ANGSTROM
BO0002 =      3.00000000 ANGSTROM
AN0001 =    180.00000000 DEGREE
************************************************************************************************************************


 *************************************************************
 * Values of the primitive constraints                       *
 *************************************************************
 BO0001   : Bond Length=  2.699956 / Angstrom  5.102177 / bohr
 BO0002   : Bond Length=  1.399843 / Angstrom  2.645319 / bohr
 AN0001   : Angle=      175.0122   / Degree    3.054539 / rad

 *******************************************
 * Values of the constraints   / au or rad *
 *******************************************
   Label        C         C0
 Cns001      5.102177  2.078699
 Cns002      2.645319  5.669178
 Cns003      3.054539  3.141593

  11  -289.85949823  -289.84635984     0.01313839  0.08362178  0.13588722  0.01799870  0.11123482  0.39211625  0.00687923    108.09

 Constraints section
ConstraintsConstraintsConstraintsConstraintsConstraintsConstraintsConstraintsConstraintsConstraintsConstraints
ConstraintsConstraintsConstraintsConstraintsConstraintsConstraintsConstraintsConstraintsConstraintsConstraints
Constraints                                                                                        Constraints
Constraints                                 C O N S T R A I N T S                                  Constraints
Constraints                                                                                        Constraints

************************************************************************************************************************
BO0001 = BOND       H10   C5
BO0002 = BOND       H10   C17
AN0001 = ANGLE      C5    H10   C17
VALUES
BO0001 =      1.10000000 ANGSTROM
BO0002 =      3.00000000 ANGSTROM
AN0001 =    180.00000000 DEGREE
************************************************************************************************************************


 *************************************************************
 * Values of the primitive constraints                       *
 *************************************************************
 BO0001   : Bond Length=  2.644924 / Angstrom  4.998182 / bohr
 BO0002   : Bond Length=  1.455077 / Angstrom  2.749697 / bohr
 AN0001   : Angle=      175.1830   / Degree    3.057521 / rad

 *******************************************
 * Values of the constraints   / au or rad *
 *******************************************
   Label        C         C0
 Cns001      4.998182  2.078699
 Cns002      2.749697  5.669178
 Cns003      3.057521  3.141593

  12  -289.84635984  -289.82927220     0.01708763  0.08352788  0.14754738  0.01954313  0.09270542  0.18456781  0.00323803    118.11

 Constraints section
ConstraintsConstraintsConstraintsConstraintsConstraintsConstraintsConstraintsConstraintsConstraintsConstraints
ConstraintsConstraintsConstraintsConstraintsConstraintsConstraintsConstraintsConstraintsConstraintsConstraints
Constraints                                                                                        Constraints
Constraints                                 C O N S T R A I N T S                                  Constraints
Constraints                                                                                        Constraints

************************************************************************************************************************
BO0001 = BOND       H10   C5
BO0002 = BOND       H10   C17
AN0001 = ANGLE      C5    H10   C17
VALUES
BO0001 =      1.10000000 ANGSTROM
BO0002 =      3.00000000 ANGSTROM
AN0001 =    180.00000000 DEGREE
************************************************************************************************************************


 *************************************************************
 * Values of the primitive constraints                       *
 *************************************************************
 BO0001   : Bond Length=  2.588808 / Angstrom  4.892138 / bohr
 BO0002   : Bond Length=  1.511193 / Angstrom  2.855741 / bohr
 AN0001   : Angle=      175.3575   / Degree    3.060566 / rad

 *******************************************
 * Values of the constraints   / au or rad *
 *******************************************
   Label        C         C0
 Cns001      4.892138  2.078699
 Cns002      2.855741  5.669178
 Cns003      3.060566  3.141593

  13  -289.82927220  -289.81042575     0.01884645  0.08115547  0.17176579  0.02275093  0.08946232  0.17957887  0.00315051    128.63

 Constraints section
ConstraintsConstraintsConstraintsConstraintsConstraintsConstraintsConstraintsConstraintsConstraintsConstraints
ConstraintsConstraintsConstraintsConstraintsConstraintsConstraintsConstraintsConstraintsConstraintsConstraints
Constraints                                                                                        Constraints
Constraints                                 C O N S T R A I N T S                                  Constraints
Constraints                                                                                        Constraints

************************************************************************************************************************
BO0001 = BOND       H10   C5
BO0002 = BOND       H10   C17
AN0001 = ANGLE      C5    H10   C17
VALUES
BO0001 =      1.10000000 ANGSTROM
BO0002 =      3.00000000 ANGSTROM
AN0001 =    180.00000000 DEGREE
************************************************************************************************************************


 *************************************************************
 * Values of the primitive constraints                       *
 *************************************************************
 BO0001   : Bond Length=  2.532692 / Angstrom  4.786094 / bohr
 BO0002   : Bond Length=  1.567309 / Angstrom  2.961785 / bohr
 AN0001   : Angle=      175.5316   / Degree    3.063604 / rad

 *******************************************
 * Values of the constraints   / au or rad *
 *******************************************
   Label        C         C0
 Cns001      4.786094  2.078699
 Cns002      2.961785  5.669178
 Cns003      3.063604  3.141593

  14  -289.81042575  -289.78880397     0.02162178  0.08644832  0.20435098  0.02706695  0.09200336  0.17973566  0.00315326    139.21

 Constraints section
ConstraintsConstraintsConstraintsConstraintsConstraintsConstraintsConstraintsConstraintsConstraintsConstraints
ConstraintsConstraintsConstraintsConstraintsConstraintsConstraintsConstraintsConstraintsConstraintsConstraints
Constraints                                                                                        Constraints
Constraints                                 C O N S T R A I N T S                                  Constraints
Constraints                                                                                        Constraints

************************************************************************************************************************
BO0001 = BOND       H10   C5
BO0002 = BOND       H10   C17
AN0001 = ANGLE      C5    H10   C17
VALUES
BO0001 =      1.10000000 ANGSTROM
BO0002 =      3.00000000 ANGSTROM
AN0001 =    180.00000000 DEGREE
************************************************************************************************************************


 *************************************************************
 * Values of the primitive constraints                       *
 *************************************************************
 BO0001   : Bond Length=  2.476576 / Angstrom  4.680050 / bohr
 BO0002   : Bond Length=  1.623425 / Angstrom  3.067829 / bohr
 AN0001   : Angle=      175.7058   / Degree    3.066645 / rad

 *******************************************
 * Values of the constraints   / au or rad *
 *******************************************
   Label        C         C0
 Cns001      4.680050  2.078699
 Cns002      3.067829  5.669178
 Cns003      3.066645  3.141593

  15  -289.78880397  -289.75803386     0.03077011  0.11251827  0.25255516  0.03345175  0.08292115  0.21894235  0.00384109    150.43

 Constraints section
ConstraintsConstraintsConstraintsConstraintsConstraintsConstraintsConstraintsConstraintsConstraintsConstraints
ConstraintsConstraintsConstraintsConstraintsConstraintsConstraintsConstraintsConstraintsConstraintsConstraints
Constraints                                                                                        Constraints
Constraints                                 C O N S T R A I N T S                                  Constraints
Constraints                                                                                        Constraints

************************************************************************************************************************
BO0001 = BOND       H10   C5
BO0002 = BOND       H10   C17
AN0001 = ANGLE      C5    H10   C17
VALUES
BO0001 =      1.10000000 ANGSTROM
BO0002 =      3.00000000 ANGSTROM
AN0001 =    180.00000000 DEGREE
************************************************************************************************************************


 *************************************************************
 * Values of the primitive constraints                       *
 *************************************************************
 BO0001   : Bond Length=  2.420460 / Angstrom  4.574006 / bohr
 BO0002   : Bond Length=  1.679541 / Angstrom  3.173873 / bohr
 AN0001   : Angle=      175.8793   / Degree    3.069673 / rad

 *******************************************
 * Values of the constraints   / au or rad *
 *******************************************
   Label        C         C0
 Cns001      4.574006  2.078699
 Cns002      3.173873  5.669178
 Cns003      3.069673  3.141593

  16  -289.75803386  -289.74218959     0.01584426  0.15542889  0.32998566  0.04370767  0.12837923  0.37176691  0.00652223    161.70

 Constraints section
ConstraintsConstraintsConstraintsConstraintsConstraintsConstraintsConstraintsConstraintsConstraintsConstraints
ConstraintsConstraintsConstraintsConstraintsConstraintsConstraintsConstraintsConstraintsConstraintsConstraints
Constraints                                                                                        Constraints
Constraints                                 C O N S T R A I N T S                                  Constraints
Constraints                                                                                        Constraints

************************************************************************************************************************
BO0001 = BOND       H10   C5
BO0002 = BOND       H10   C17
AN0001 = ANGLE      C5    H10   C17
VALUES
BO0001 =      1.10000000 ANGSTROM
BO0002 =      3.00000000 ANGSTROM
AN0001 =    180.00000000 DEGREE
************************************************************************************************************************


 *************************************************************
 * Values of the primitive constraints                       *
 *************************************************************
 BO0001   : Bond Length=  2.364344 / Angstrom  4.467962 / bohr
 BO0002   : Bond Length=  1.735657 / Angstrom  3.279917 / bohr
 AN0001   : Angle=      176.0269   / Degree    3.072250 / rad

 *******************************************
 * Values of the constraints   / au or rad *
 *******************************************
   Label        C         C0
 Cns001      4.467962  2.078699
 Cns002      3.279917  5.669178
 Cns003      3.072250  3.141593

  17  -289.74218959  -289.72059622     0.02159337  0.17035393  0.33455507  0.04431290  0.10502836  0.18568937  0.00325771    173.10

 Constraints section
ConstraintsConstraintsConstraintsConstraintsConstraintsConstraintsConstraintsConstraintsConstraintsConstraints
ConstraintsConstraintsConstraintsConstraintsConstraintsConstraintsConstraintsConstraintsConstraintsConstraints
Constraints                                                                                        Constraints
Constraints                                 C O N S T R A I N T S                                  Constraints
Constraints                                                                                        Constraints

************************************************************************************************************************
BO0001 = BOND       H10   C5
BO0002 = BOND       H10   C17
AN0001 = ANGLE      C5    H10   C17
VALUES
BO0001 =      1.10000000 ANGSTROM
BO0002 =      3.00000000 ANGSTROM
AN0001 =    180.00000000 DEGREE
************************************************************************************************************************


 *************************************************************
 * Values of the primitive constraints                       *
 *************************************************************
 BO0001   : Bond Length=  2.300978 / Angstrom  4.348218 / bohr
 BO0002   : Bond Length=  1.799023 / Angstrom  3.399661 / bohr
 AN0001   : Angle=      176.2258   / Degree    3.075720 / rad

 *******************************************
 * Values of the constraints   / au or rad *
 *******************************************
   Label        C         C0
 Cns001      4.348218  2.078699
 Cns002      3.399661  5.669178
 Cns003      3.075720  3.141593

  18  -289.72059622  -289.69647084     0.02412538  0.19417734  0.37068809  0.04909884  0.09228007  0.16817404  0.00295042    184.62

 Constraints section
ConstraintsConstraintsConstraintsConstraintsConstraintsConstraintsConstraintsConstraintsConstraintsConstraints
ConstraintsConstraintsConstraintsConstraintsConstraintsConstraintsConstraintsConstraintsConstraintsConstraints
Constraints                                                                                        Constraints
Constraints                                 C O N S T R A I N T S                                  Constraints
Constraints                                                                                        Constraints

************************************************************************************************************************
BO0001 = BOND       H10   C5
BO0002 = BOND       H10   C17
AN0001 = ANGLE      C5    H10   C17
VALUES
BO0001 =      1.10000000 ANGSTROM
BO0002 =      3.00000000 ANGSTROM
AN0001 =    180.00000000 DEGREE
************************************************************************************************************************


 *************************************************************
 * Values of the primitive constraints                       *
 *************************************************************
 BO0001   : Bond Length=  2.244862 / Angstrom  4.242174 / bohr
 BO0002   : Bond Length=  1.855139 / Angstrom  3.505705 / bohr
 AN0001   : Angle=      176.4019   / Degree    3.078794 / rad

 *******************************************
 * Values of the constraints   / au or rad *
 *******************************************
   Label        C         C0
 Cns001      4.242174  2.078699
 Cns002      3.505705  5.669178
 Cns003      3.078794  3.141593

  19  -289.69647084  -289.66914464     0.02732620  0.21873708  0.42850061  0.05675629  0.08416399  0.18677798  0.00327681    196.73

 Constraints section
ConstraintsConstraintsConstraintsConstraintsConstraintsConstraintsConstraintsConstraintsConstraintsConstraints
ConstraintsConstraintsConstraintsConstraintsConstraintsConstraintsConstraintsConstraintsConstraintsConstraints
Constraints                                                                                        Constraints
Constraints                                 C O N S T R A I N T S                                  Constraints
Constraints                                                                                        Constraints

************************************************************************************************************************
BO0001 = BOND       H10   C5
BO0002 = BOND       H10   C17
AN0001 = ANGLE      C5    H10   C17
VALUES
BO0001 =      1.10000000 ANGSTROM
BO0002 =      3.00000000 ANGSTROM
AN0001 =    180.00000000 DEGREE
************************************************************************************************************************


 *************************************************************
 * Values of the primitive constraints                       *
 *************************************************************
 BO0001   : Bond Length=  2.188746 / Angstrom  4.136131 / bohr
 BO0002   : Bond Length=  1.911255 / Angstrom  3.611748 / bohr
 AN0001   : Angle=      176.5782   / Degree    3.081870 / rad

 *******************************************
 * Values of the constraints   / au or rad *
 *******************************************
   Label        C         C0
 Cns001      4.136131  2.078699
 Cns002      3.611748  5.669178
 Cns003      3.081870  3.141593

  20  -289.66914464  -289.63802136     0.03112328  0.24698693  0.49482988  0.06554182  0.08766987  0.17730853  0.00311068    209.58

 Constraints section
ConstraintsConstraintsConstraintsConstraintsConstraintsConstraintsConstraintsConstraintsConstraintsConstraints
ConstraintsConstraintsConstraintsConstraintsConstraintsConstraintsConstraintsConstraintsConstraintsConstraints
Constraints                                                                                        Constraints
Constraints                                 C O N S T R A I N T S                                  Constraints
Constraints                                                                                        Constraints

************************************************************************************************************************
BO0001 = BOND       H10   C5
BO0002 = BOND       H10   C17
AN0001 = ANGLE      C5    H10   C17
VALUES
BO0001 =      1.10000000 ANGSTROM
BO0002 =      3.00000000 ANGSTROM
AN0001 =    180.00000000 DEGREE
************************************************************************************************************************


 *************************************************************
 * Values of the primitive constraints                       *
 *************************************************************
 BO0001   : Bond Length=  2.132630 / Angstrom  4.030088 / bohr
 BO0002   : Bond Length=  1.967370 / Angstrom  3.717791 / bohr
 AN0001   : Angle=      176.7545   / Degree    3.084947 / rad

 *******************************************
 * Values of the constraints   / au or rad *
 *******************************************
   Label        C         C0
 Cns001      4.030088  2.078699
 Cns002      3.717791  5.669178
 Cns003      3.084947  3.141593

  21  -289.63802136  -289.62781135     0.01021001  0.28614041  0.57919447  0.07671618  0.10385787  0.18205260  0.00319391    221.92

 Constraints section
ConstraintsConstraintsConstraintsConstraintsConstraintsConstraintsConstraintsConstraintsConstraintsConstraints
ConstraintsConstraintsConstraintsConstraintsConstraintsConstraintsConstraintsConstraintsConstraintsConstraints
Constraints                                                                                        Constraints
Constraints                                 C O N S T R A I N T S                                  Constraints
Constraints                                                                                        Constraints

************************************************************************************************************************
BO0001 = BOND       H10   C5
BO0002 = BOND       H10   C17
AN0001 = ANGLE      C5    H10   C17
VALUES
BO0001 =      1.10000000 ANGSTROM
BO0002 =      3.00000000 ANGSTROM
AN0001 =    180.00000000 DEGREE
************************************************************************************************************************


 *************************************************************
 * Values of the primitive constraints                       *
 *************************************************************
 BO0001   : Bond Length=  2.076515 / Angstrom  3.924044 / bohr
 BO0002   : Bond Length=  2.023486 / Angstrom  3.823835 / bohr
 AN0001   : Angle=      176.9307   / Degree    3.088024 / rad

 *******************************************
 * Values of the constraints   / au or rad *
 *******************************************
   Label        C         C0
 Cns001      3.924044  2.078699
 Cns002      3.823835  5.669178
 Cns003      3.088024  3.141593

  22  -289.62781135  -289.62194913     0.00586222  0.28135020  0.58538869  0.07753663  0.08932884  0.14821632  0.00260029    233.51

 Constraints section
ConstraintsConstraintsConstraintsConstraintsConstraintsConstraintsConstraintsConstraintsConstraintsConstraints
ConstraintsConstraintsConstraintsConstraintsConstraintsConstraintsConstraintsConstraintsConstraintsConstraints
Constraints                                                                                        Constraints
Constraints                                 C O N S T R A I N T S                                  Constraints
Constraints                                                                                        Constraints

************************************************************************************************************************
BO0001 = BOND       H10   C5
BO0002 = BOND       H10   C17
AN0001 = ANGLE      C5    H10   C17
VALUES
BO0001 =      1.10000000 ANGSTROM
BO0002 =      3.00000000 ANGSTROM
AN0001 =    180.00000000 DEGREE
************************************************************************************************************************


 *************************************************************
 * Values of the primitive constraints                       *
 *************************************************************
 BO0001   : Bond Length=  2.020399 / Angstrom  3.818001 / bohr
 BO0002   : Bond Length=  2.079602 / Angstrom  3.929878 / bohr
 AN0001   : Angle=      177.1070   / Degree    3.091100 / rad

 *******************************************
 * Values of the constraints   / au or rad *
 *******************************************
   Label        C         C0
 Cns001      3.818001  2.078699
 Cns002      3.929878  5.669178
 Cns003      3.091100  3.141593

  23  -289.62194913  -289.62308745    -0.00113832  0.26761892  0.57650137  0.07635947  0.08720116  0.15420741  0.00270539    245.07

 Constraints section
ConstraintsConstraintsConstraintsConstraintsConstraintsConstraintsConstraintsConstraintsConstraintsConstraints
ConstraintsConstraintsConstraintsConstraintsConstraintsConstraintsConstraintsConstraintsConstraintsConstraints
Constraints                                                                                        Constraints
Constraints                                 C O N S T R A I N T S                                  Constraints
Constraints                                                                                        Constraints

************************************************************************************************************************
BO0001 = BOND       H10   C5
BO0002 = BOND       H10   C17
AN0001 = ANGLE      C5    H10   C17
VALUES
BO0001 =      1.10000000 ANGSTROM
BO0002 =      3.00000000 ANGSTROM
AN0001 =    180.00000000 DEGREE
************************************************************************************************************************


 *************************************************************
 * Values of the primitive constraints                       *
 *************************************************************
 BO0001   : Bond Length=  1.964283 / Angstrom  3.711958 / bohr
 BO0002   : Bond Length=  2.135717 / Angstrom  4.035921 / bohr
 AN0001   : Angle=      177.2832   / Degree    3.094176 / rad

 *******************************************
 * Values of the constraints   / au or rad *
 *******************************************
   Label        C         C0
 Cns001      3.711958  2.078699
 Cns002      4.035921  5.669178
 Cns003      3.094176  3.141593

  24  -289.62308745  -289.62590378    -0.00281633  0.24337671  0.54822403  0.07261405  0.08274090  0.15880238  0.00278601    256.59

 Constraints section
ConstraintsConstraintsConstraintsConstraintsConstraintsConstraintsConstraintsConstraintsConstraintsConstraints
ConstraintsConstraintsConstraintsConstraintsConstraintsConstraintsConstraintsConstraintsConstraintsConstraints
Constraints                                                                                        Constraints
Constraints                                 C O N S T R A I N T S                                  Constraints
Constraints                                                                                        Constraints

************************************************************************************************************************
BO0001 = BOND       H10   C5
BO0002 = BOND       H10   C17
AN0001 = ANGLE      C5    H10   C17
VALUES
BO0001 =      1.10000000 ANGSTROM
BO0002 =      3.00000000 ANGSTROM
AN0001 =    180.00000000 DEGREE
************************************************************************************************************************


 *************************************************************
 * Values of the primitive constraints                       *
 *************************************************************
 BO0001   : Bond Length=  1.908168 / Angstrom  3.605915 / bohr
 BO0002   : Bond Length=  2.191833 / Angstrom  4.141964 / bohr
 AN0001   : Angle=      177.4595   / Degree    3.097253 / rad

 *******************************************
 * Values of the constraints   / au or rad *
 *******************************************
   Label        C         C0
 Cns001      3.605915  2.078699
 Cns002      4.141964  5.669178
 Cns003      3.097253  3.141593

  25  -289.62590378  -289.62886581    -0.00296203  0.23044197  0.51646698  0.06840772  0.07808657  0.15684608  0.00275169    268.75

 Constraints section
ConstraintsConstraintsConstraintsConstraintsConstraintsConstraintsConstraintsConstraintsConstraintsConstraints
ConstraintsConstraintsConstraintsConstraintsConstraintsConstraintsConstraintsConstraintsConstraintsConstraints
Constraints                                                                                        Constraints
Constraints                                 C O N S T R A I N T S                                  Constraints
Constraints                                                                                        Constraints

************************************************************************************************************************
BO0001 = BOND       H10   C5
BO0002 = BOND       H10   C17
AN0001 = ANGLE      C5    H10   C17
VALUES
BO0001 =      1.10000000 ANGSTROM
BO0002 =      3.00000000 ANGSTROM
AN0001 =    180.00000000 DEGREE
************************************************************************************************************************


 *************************************************************
 * Values of the primitive constraints                       *
 *************************************************************
 BO0001   : Bond Length=  1.852052 / Angstrom  3.499871 / bohr
 BO0002   : Bond Length=  2.247948 / Angstrom  4.248007 / bohr
  Valence angle close to end in range of definition
 AN0001   : Angle=      177.6358   / Degree    3.100329 / rad

 *******************************************
 * Values of the constraints   / au or rad *
 *******************************************
   Label        C         C0
 Cns001      3.499871  2.078699
 Cns002      4.248007  5.669178
 Cns003      3.100329  3.141593

  26  -289.62886581  -289.64808900    -0.01922319  0.23407898  0.49085266  0.06501502  0.05674368  0.18042389  0.00316533    280.25

 Constraints section
ConstraintsConstraintsConstraintsConstraintsConstraintsConstraintsConstraintsConstraintsConstraintsConstraints
ConstraintsConstraintsConstraintsConstraintsConstraintsConstraintsConstraintsConstraintsConstraintsConstraints
Constraints                                                                                        Constraints
Constraints                                 C O N S T R A I N T S                                  Constraints
Constraints                                                                                        Constraints

************************************************************************************************************************
BO0001 = BOND       H10   C5
BO0002 = BOND       H10   C17
AN0001 = ANGLE      C5    H10   C17
VALUES
BO0001 =      1.10000000 ANGSTROM
BO0002 =      3.00000000 ANGSTROM
AN0001 =    180.00000000 DEGREE
************************************************************************************************************************


 *************************************************************
 * Values of the primitive constraints                       *
 *************************************************************
 BO0001   : Bond Length=  1.795937 / Angstrom  3.393829 / bohr
 BO0002   : Bond Length=  2.304064 / Angstrom  4.354050 / bohr
  Valence angle close to end in range of definition
 AN0001   : Angle=      177.8120   / Degree    3.103405 / rad

 *******************************************
 * Values of the constraints   / au or rad *
 *******************************************
   Label        C         C0
 Cns001      3.393829  2.078699
 Cns002      4.354050  5.669178
 Cns003      3.103405  3.141593

  27  -289.64808900  -289.67021557    -0.02212657  0.23398493  0.44071766  0.05837448  0.06668601  0.17486583  0.00306782    291.38

 Constraints section
ConstraintsConstraintsConstraintsConstraintsConstraintsConstraintsConstraintsConstraintsConstraintsConstraints
ConstraintsConstraintsConstraintsConstraintsConstraintsConstraintsConstraintsConstraintsConstraintsConstraints
Constraints                                                                                        Constraints
Constraints                                 C O N S T R A I N T S                                  Constraints
Constraints                                                                                        Constraints

************************************************************************************************************************
BO0001 = BOND       H10   C5
BO0002 = BOND       H10   C17
AN0001 = ANGLE      C5    H10   C17
VALUES
BO0001 =      1.10000000 ANGSTROM
BO0002 =      3.00000000 ANGSTROM
AN0001 =    180.00000000 DEGREE
************************************************************************************************************************


 *************************************************************
 * Values of the primitive constraints                       *
 *************************************************************
 BO0001   : Bond Length=  1.739821 / Angstrom  3.287786 / bohr
 BO0002   : Bond Length=  2.360179 / Angstrom  4.460093 / bohr
  Valence angle close to end in range of definition
 AN0001   : Angle=      177.9883   / Degree    3.106482 / rad

 *******************************************
 * Values of the constraints   / au or rad *
 *******************************************
   Label        C         C0
 Cns001      3.287786  2.078699
 Cns002      4.460093  5.669178
 Cns003      3.106482  3.141593

  28  -289.67021557  -289.69333760    -0.02312203  0.23246571  0.40386878  0.05349373  0.06612559  0.18227183  0.00319775    306.57

 Constraints section
ConstraintsConstraintsConstraintsConstraintsConstraintsConstraintsConstraintsConstraintsConstraintsConstraints
ConstraintsConstraintsConstraintsConstraintsConstraintsConstraintsConstraintsConstraintsConstraintsConstraints
Constraints                                                                                        Constraints
Constraints                                 C O N S T R A I N T S                                  Constraints
Constraints                                                                                        Constraints

************************************************************************************************************************
BO0001 = BOND       H10   C5
BO0002 = BOND       H10   C17
AN0001 = ANGLE      C5    H10   C17
VALUES
BO0001 =      1.10000000 ANGSTROM
BO0002 =      3.00000000 ANGSTROM
AN0001 =    180.00000000 DEGREE
************************************************************************************************************************


 *************************************************************
 * Values of the primitive constraints                       *
 *************************************************************
 BO0001   : Bond Length=  1.683706 / Angstrom  3.181743 / bohr
 BO0002   : Bond Length=  2.416295 / Angstrom  4.566135 / bohr
  Valence angle close to end in range of definition
 AN0001   : Angle=      178.1646   / Degree    3.109560 / rad

 *******************************************
 * Values of the constraints   / au or rad *
 *******************************************
   Label        C         C0
 Cns001      3.181743  2.078699
 Cns002      4.566135  5.669178
 Cns003      3.109560  3.141593

  29  -289.69333760  -289.71486764    -0.02153003  0.22962787  0.37930909  0.05024072  0.06741528  0.17871915  0.00313542    322.04

 Constraints section
ConstraintsConstraintsConstraintsConstraintsConstraintsConstraintsConstraintsConstraintsConstraintsConstraints
ConstraintsConstraintsConstraintsConstraintsConstraintsConstraintsConstraintsConstraintsConstraintsConstraints
Constraints                                                                                        Constraints
Constraints                                 C O N S T R A I N T S                                  Constraints
Constraints                                                                                        Constraints

************************************************************************************************************************
BO0001 = BOND       H10   C5
BO0002 = BOND       H10   C17
AN0001 = ANGLE      C5    H10   C17
VALUES
BO0001 =      1.10000000 ANGSTROM
BO0002 =      3.00000000 ANGSTROM
AN0001 =    180.00000000 DEGREE
************************************************************************************************************************


 *************************************************************
 * Values of the primitive constraints                       *
 *************************************************************
 BO0001   : Bond Length=  1.627590 / Angstrom  3.075700 / bohr
 BO0002   : Bond Length=  2.472410 / Angstrom  4.672178 / bohr
  Valence angle close to end in range of definition
 AN0001   : Angle=      178.3410   / Degree    3.112637 / rad

 *******************************************
 * Values of the constraints   / au or rad *
 *******************************************
   Label        C         C0
 Cns001      3.075700  2.078699
 Cns002      4.672178  5.669178
 Cns003      3.112637  3.141593

  30  -289.71486764  -289.73564516    -0.02077753  0.22554206  0.36276039  0.04804879  0.06969853  0.18199666  0.00319292    335.31

 Constraints section
ConstraintsConstraintsConstraintsConstraintsConstraintsConstraintsConstraintsConstraintsConstraintsConstraints
ConstraintsConstraintsConstraintsConstraintsConstraintsConstraintsConstraintsConstraintsConstraintsConstraints
Constraints                                                                                        Constraints
Constraints                                 C O N S T R A I N T S                                  Constraints
Constraints                                                                                        Constraints

************************************************************************************************************************
BO0001 = BOND       H10   C5
BO0002 = BOND       H10   C17
AN0001 = ANGLE      C5    H10   C17
VALUES
BO0001 =      1.10000000 ANGSTROM
BO0002 =      3.00000000 ANGSTROM
AN0001 =    180.00000000 DEGREE
************************************************************************************************************************


 *************************************************************
 * Values of the primitive constraints                       *
 *************************************************************
 BO0001   : Bond Length=  1.571475 / Angstrom  2.969658 / bohr
 BO0002   : Bond Length=  2.528525 / Angstrom  4.778220 / bohr
  Valence angle close to end in range of definition
 AN0001   : Angle=      178.5173   / Degree    3.115715 / rad

 *******************************************
 * Values of the constraints   / au or rad *
 *******************************************
   Label        C         C0
 Cns001      2.969658  2.078699
 Cns002      4.778220  5.669178
 Cns003      3.115715  3.141593

  31  -289.73564516  -289.75877524    -0.02313008  0.21964254  0.34940558  0.04627990  0.07418726  0.18065654  0.00316941    347.38

 Constraints section
ConstraintsConstraintsConstraintsConstraintsConstraintsConstraintsConstraintsConstraintsConstraintsConstraints
ConstraintsConstraintsConstraintsConstraintsConstraintsConstraintsConstraintsConstraintsConstraintsConstraints
Constraints                                                                                        Constraints
Constraints                                 C O N S T R A I N T S                                  Constraints
Constraints                                                                                        Constraints

************************************************************************************************************************
BO0001 = BOND       H10   C5
BO0002 = BOND       H10   C17
AN0001 = ANGLE      C5    H10   C17
VALUES
BO0001 =      1.10000000 ANGSTROM
BO0002 =      3.00000000 ANGSTROM
AN0001 =    180.00000000 DEGREE
************************************************************************************************************************


 *************************************************************
 * Values of the primitive constraints                       *
 *************************************************************
 BO0001   : Bond Length=  1.515360 / Angstrom  2.863615 / bohr
 BO0002   : Bond Length=  2.584640 / Angstrom  4.884263 / bohr
  Valence angle close to end in range of definition
 AN0001   : Angle=      178.6936   / Degree    3.118792 / rad

 *******************************************
 * Values of the constraints   / au or rad *
 *******************************************
   Label        C         C0
 Cns001      2.863615  2.078699
 Cns002      4.884263  5.669178
 Cns003      3.118792  3.141593

  32  -289.75877524  -289.78172424    -0.02294900  0.20882072  0.33140122  0.04389516  0.07920184  0.17599265  0.00308759    359.57

 Constraints section
ConstraintsConstraintsConstraintsConstraintsConstraintsConstraintsConstraintsConstraintsConstraintsConstraints
[...]
   12      0.510D-05      0.123D-05      -290.21898671    784.801598    0.20222    0.04073    0.72495    9     26.2    346.5
   13      0.180D-05      0.402D-06      -290.21898678    784.801208    0.20240    0.04072    0.72590    9     25.0    371.6
   14      0.623D-06      0.220D-06      -290.21898679    784.801079    0.20248    0.04071    0.72624    9     23.5    395.0
   15      0.460D-06      0.143D-06      -290.21898680    784.801023    0.20250    0.04071    0.72631    9     22.5    417.6

 Final alpha occupancy:  28
 Final beta  occupancy:  27

 !UKS STATE  1.1 Energy              -290.218986796611
 Nuclear energy                       265.20666401
 One-electron energy                 -914.84793356
 Two-electron energy                  392.40051131
 Density functional                   -32.97822856     PBEX=-41.63911039 PBEC= -1.74889576
 Virial quotient                       -1.00566399
 !UKS STATE  1.1 Dipole moment          0.20249501     0.04070734     0.72631237
 Dipole moment /Debye                   0.51465728     0.10346096     1.84598098

 Orbital energies for positive spin:

         1.1          2.1          3.1          4.1          5.1          6.1          7.1          8.1          9.1         10.1
    -14.447014   -10.343286   -10.229666   -10.219823   -10.215429   -10.212822   -10.212571    -0.984006    -0.840590    -0.758801

        11.1         12.1         13.1         14.1         15.1         16.1         17.1         18.1         19.1         20.1
     -0.707298    -0.645926    -0.575823    -0.520787    -0.484883    -0.463615    -0.447707    -0.427698    -0.421556    -0.402449

        21.1         22.1         23.1         24.1         25.1         26.1         27.1         28.1         29.1         30.1
     -0.402412    -0.399793    -0.395719    -0.375059    -0.362129    -0.338748    -0.334043    -0.328491    -0.011297    -0.010007

 Orbital energies for negative spin:

         1.1          2.1          3.1          4.1          5.1          6.1          7.1          8.1          9.1         10.1
    -14.443688   -10.324959   -10.229640   -10.219810   -10.215259   -10.212822   -10.212562    -0.961815    -0.840421    -0.758702

        11.1         12.1         13.1         14.1         15.1         16.1         17.1         18.1         19.1         20.1
     -0.706917    -0.645841    -0.575386    -0.484780    -0.463545    -0.448183    -0.445055    -0.427629    -0.399913    -0.395694

        21.1         22.1         23.1         24.1         25.1         26.1         27.1         28.1         29.1         30.1
     -0.394160    -0.394131    -0.375008    -0.362041    -0.338721    -0.333975    -0.328473    -0.233266     0.012367     0.014923


 HOMO    -27.1    -0.328473 =      -8.9382eV
 LUMO    -28.1    -0.233266 =      -6.3475eV
 LUMO-HOMO         0.095208 =       2.5907eV

 EXPECTATION VALUE OF S**2:             0.76354113

 Occupation number threshold for pseudo-canonical orbitals: 1.9990 (occupied), 0.0010 (virtual)

 Number of pseudo-canonical occupied orbitals per symmetry:   24
 Number of active natural orbitals per symmetry:               7

 Natural orbitals saved to record    2204.2 (Orbital set 3)

 Orbital spaces for UNO-CAS (Min. occupation: 0.020  Max. occupation: 1.980):

 Closed:       27
 Active:        1


 **********************************************************************************************************************************
 DATASETS  * FILE   NREC   LENGTH (MB)   RECORD NAMES
              1      19       35.32       500      610      700      900      950      970     1001      129      960     1100   
                                          VAR    BASINP    GEOM    SYMINP    ZMAT    AOBASIS   BASIS     P2S    ABASIS      S 
                                         1400     1410     1200     1210     1080     1600     1650     1700     1800   
                                           T        V       H0       H01     AOSYM     SMH    MOLCAS    OPER     GRID   

              2      13       29.25       700     1000      520     2100     1800     2200      520(1)  2201      520(2)  2202   
                                         GEOM     BASIS   MCVARS     RHF     GRID      UKS    MCVARS     UKS    MCVARS     UKS  
                                         1001     2203     2204   
                                         BASIS     UKS      UKS  

 PROGRAMS   *        TOTAL    DF-UKS    DF-UKS       INT    DF-UKS      OPTG    DF-UKS      OPTG    DF-UKS     DF-HF       INT
 CPU TIMES  *      5278.39    417.66     14.72      0.24     11.16   4168.57     78.84    568.46      8.79      9.52      0.32
 REAL TIME  *      5306.28 SEC
 DISK USED  *        90.73 MB
 **********************************************************************************************************************************

 Density functional group PBE0=PBEX+PBEC
 Functional: PBEX(Automatically generated (new) PBEX)                          Gradient terms: 1
 Functional: PBEC(Automatically generated (new) PBEC)                          Gradient terms: 1
 Use libxcgrid:  F
 Use grid at  1800.2


 Exact exchange will be calculated, factor:  0.2500

 Functional: PBEX                      Factor:  0.7500
 Functional: PBEC                      Factor:  1.0000

  234265 words reserved for DFT integration

 PROGRAM * UKS-SCF (Unrestricted Kohn-Sham)     Authors: W. Meyer, H.-J. Werner, P.J. Knowles, 1993

 NUMBER OF ELECTRONS:      28+   27-    SPACE SYMMETRY=1    SPIN SYMMETRY: Doublet 
 CONVERGENCE THRESHOLDS:    1.00E-06 (Density)    1.00E-06 (Energy)
 INTEGRAL THRESHOLDS:       1.00E-11 (Initial)    1.00E-11 (Final)
 MAX. NUMBER OF ITERATIONS:       60
 INTERPOLATION TYPE:            DIIS
 INTERPOLATION STEPS:              2 (START)      1 (STEP)
 LEVEL SHIFTS:                 -0.20 (ALPHA)  -0.20 (BETA) 



 Use fine grid record 1800.2 for energy threshold  1.0D-06
 Molecular orbitals read from record     2204.2  Type=UKS/ALPHA (state 1.1)
 Molecular orbitals read from record     2204.2  Type=UKS/BETA (state 1.1)

 Molecular orbital dump at record        2205.2

 Initial alpha occupation  28
 Initial beta  occupation  27

 Direct Fock-matrix evaluation.        Author: H.-J. Werner (1996)

 Integral Threshold:                  0.1D-10

 ITERATION   DDIFF            GRAD            ENERGY        2-EL.EN.            DIPOLE MOMENTS         DIIS   CPU(IT)  CPU(TOT)
    1      0.000D+00      0.000D+00      -290.21872966    784.801537    0.20250    0.04071    0.72631    0     33.7     33.8
    2      0.325D-04      0.760D-05      -290.21873107    784.798072    0.20245    0.04072    0.72626    1     30.9     64.7
    3      0.109D-04      0.132D-05      -290.21873114    784.799202    0.20239    0.04072    0.72616    2     29.9     94.6
    4      0.399D-05      0.246D-06      -290.21873115    784.799019    0.20240    0.04075    0.72622    3     28.7    123.3
    5      0.818D-06      0.137D-06      -290.21873115    784.799192    0.20235    0.04073    0.72610    4     27.0    150.3
    6      0.421D-06      0.103D-06      -290.21873115    784.799311    0.20238    0.04074    0.72615    5     26.2    176.5

 Final alpha occupancy:  28
 Final beta  occupancy:  27

 !UKS STATE  1.1 Energy              -290.218731149933
 Nuclear energy                       265.20666401
 One-electron energy                 -914.84708551
 Two-electron energy                  392.39965549
 Density functional                   -32.97796514     PBEX=-41.63869379 PBEC= -1.74894480
 Virial quotient                       -1.00567540
 !UKS STATE  1.1 Dipole moment          0.20237544     0.04074045     0.72615442
 Dipole moment /Debye                   0.51435338     0.10354512     1.84557955

 Orbital energies for positive spin:

         1.1          2.1          3.1          4.1          5.1          6.1          7.1          8.1          9.1         10.1
    -14.447057   -10.343324   -10.229691   -10.219843   -10.215475   -10.212872   -10.212618    -0.984007    -0.840591    -0.758805

        11.1         12.1         13.1         14.1         15.1         16.1         17.1         18.1         19.1         20.1
     -0.707303    -0.645927    -0.575820    -0.520793    -0.484887    -0.463621    -0.447715    -0.427699    -0.421569    -0.402453

        21.1         22.1         23.1         24.1         25.1         26.1         27.1         28.1         29.1         30.1
     -0.402416    -0.399793    -0.395721    -0.375060    -0.362124    -0.338752    -0.334047    -0.328488    -0.011318    -0.010024

 Orbital energies for negative spin:

         1.1          2.1          3.1          4.1          5.1          6.1          7.1          8.1          9.1         10.1
    -14.443731   -10.324996   -10.229665   -10.219829   -10.215305   -10.212872   -10.212610    -0.961815    -0.840423    -0.758706

        11.1         12.1         13.1         14.1         15.1         16.1         17.1         18.1         19.1         20.1
     -0.706923    -0.645842    -0.575384    -0.484783    -0.463551    -0.448190    -0.445066    -0.427631    -0.399912    -0.395696

        21.1         22.1         23.1         24.1         25.1         26.1         27.1         28.1         29.1         30.1
     -0.394163    -0.394134    -0.375010    -0.362035    -0.338726    -0.333979    -0.328469    -0.233278     0.012342     0.014905


 HOMO    -27.1    -0.328469 =      -8.9381eV
 LUMO    -28.1    -0.233278 =      -6.3478eV
 LUMO-HOMO         0.095191 =       2.5903eV

 EXPECTATION VALUE OF S**2:             0.76353676

 Occupation number threshold for pseudo-canonical orbitals: 1.9990 (occupied), 0.0010 (virtual)

 Number of pseudo-canonical occupied orbitals per symmetry:   24
 Number of active natural orbitals per symmetry:               7

 Natural orbitals saved to record    2205.2 (Orbital set 3)

 Orbital spaces for UNO-CAS (Min. occupation: 0.020  Max. occupation: 1.980):

 Closed:       27
 Active:        1


 **********************************************************************************************************************************
 DATASETS  * FILE   NREC   LENGTH (MB)   RECORD NAMES
              1      19       35.32       500      610      700      900      950      970     1001      129      960     1100   
                                          VAR    BASINP    GEOM    SYMINP    ZMAT    AOBASIS   BASIS     P2S    ABASIS      S 
                                         1400     1410     1200     1210     1080     1600     1650     1700     1800   
                                           T        V       H0       H01     AOSYM     SMH    MOLCAS    OPER     GRID   

              2      14       35.10       700     1000      520     2100     1800     2200      520(1)  2201      520(2)  2202   
                                         GEOM     BASIS   MCVARS     RHF     GRID      UKS    MCVARS     UKS    MCVARS     UKS  
                                         1001     2203     2204     2205   
                                         BASIS     UKS      UKS      UKS  

 PROGRAMS   *        TOTAL   UKS-SCF    DF-UKS    DF-UKS       INT    DF-UKS      OPTG    DF-UKS      OPTG    DF-UKS     DF-HF
 CPU TIMES  *      5454.96    176.57    417.66     14.72      0.24     11.16   4168.57     78.84    568.46      8.79      9.52
 REAL TIME  *      5483.07 SEC
 DISK USED  *        91.66 MB
 **********************************************************************************************************************************

 Density functional group B3LYP=B88+DIRAC+LYP+VWN5
 Functional: B88(Automatically generated (new) B88)                            Gradient terms: 1
 Functional: DIRAC(Automatically generated (new) DIRAC)                        Gradient terms: 0
 Functional: LYP(Automatically generated (new) LYP)                            Gradient terms: 1
 Functional: VWN5(Automatically generated (new) VWN5)                          Gradient terms: 0
 Use libxcgrid:  F
 Use grid at  1800.2


 Exact exchange will be calculated, factor:  0.2000

 Functional: B88                       Factor:  0.7200
 Functional: DIRAC                     Factor:  0.0800
 Functional: LYP                       Factor:  0.8100
 Functional: VWN5                      Factor:  0.1900

  234265 words reserved for DFT integration

 PROGRAM * UKS-SCF (Unrestricted Kohn-Sham)     Authors: W. Meyer, H.-J. Werner, P.J. Knowles, 1993

 NUMBER OF ELECTRONS:      28+   27-    SPACE SYMMETRY=1    SPIN SYMMETRY: Doublet 
 CONVERGENCE THRESHOLDS:    1.00E-06 (Density)    1.00E-06 (Energy)
 INTEGRAL THRESHOLDS:       1.00E-11 (Initial)    1.00E-11 (Final)
 MAX. NUMBER OF ITERATIONS:       60
 INTERPOLATION TYPE:            DIIS
 INTERPOLATION STEPS:              2 (START)      1 (STEP)
 LEVEL SHIFTS:                 -0.20 (ALPHA)  -0.20 (BETA) 



 Use fine grid record 1800.2 for energy threshold  1.0D-06
 Molecular orbitals read from record     2205.2  Type=UKS/ALPHA (state 1.1)
 Molecular orbitals read from record     2205.2  Type=UKS/BETA (state 1.1)

 Molecular orbital dump at record        2206.2

 Initial alpha occupation  28
 Initial beta  occupation  27

 Direct Fock-matrix evaluation.        Author: H.-J. Werner (1996)

 Integral Threshold:                  0.1D-10

 ITERATION   DDIFF            GRAD            ENERGY        2-EL.EN.            DIPOLE MOMENTS         DIIS   CPU(IT)  CPU(TOT)
    1      0.000D+00      0.000D+00      -290.39143005    788.978874    0.20238    0.04074    0.72615    0     33.8     33.8
    2      0.976D-03      0.388D-03      -290.39557848    789.311699    0.20264    0.04013    0.72883    1     32.5     66.3
    3      0.157D-03      0.635D-04      -290.39580708    788.991942    0.19746    0.03750    0.71731    2     31.7     98.0
    4      0.797D-04      0.301D-04      -290.39586766    789.032969    0.20296    0.03908    0.73589    3     31.4    129.4
    5      0.391D-04      0.198D-04      -290.39589729    789.035781    0.19807    0.03648    0.72538    4     30.9    160.3
    6      0.264D-04      0.150D-04      -290.39592068    789.009243    0.19955    0.03642    0.73317    5     30.6    190.9
    7      0.281D-04      0.664D-05      -290.39594378    789.019823    0.19872    0.03503    0.73822    6     30.7    221.5
    8      0.250D-04      0.412D-05      -290.39595496    789.010969    0.19806    0.03351    0.74329    7     30.3    251.9
    9      0.102D-04      0.195D-05      -290.39595622    789.011884    0.19776    0.03297    0.74534    8     30.0    281.9
   10      0.269D-05      0.774D-06      -290.39595636    789.012273    0.19768    0.03285    0.74572    9     28.9    310.8
   11      0.139D-05      0.510D-06      -290.39595642    789.012217    0.19759    0.03278    0.74548    9     28.3    339.1
   12      0.828D-06      0.218D-06      -290.39595644    789.012191    0.19753    0.03275    0.74541    9     27.7    366.8
   13      0.333D-06      0.768D-07      -290.39595644    789.012155    0.19752    0.03273    0.74540    9     26.6    393.4

 Final alpha occupancy:  28
 Final beta  occupancy:  27

 !UKS STATE  1.1 Energy              -290.395956437321
 Nuclear energy                       265.20666401
 One-electron energy                 -914.84637329
 Two-electron energy                  394.50607744
 Density functional                   -35.26232461     B88=-41.90588216 DIRAC=-37.65620433 LYP= -1.75846078 VWN5= -3.43810459
 Virial quotient                       -1.00524583
 !UKS STATE  1.1 Dipole moment          0.19752122     0.03272522     0.74540329
 Dipole moment /Debye                   0.50201597     0.08317375     1.89450209

 Orbital energies for positive spin:

         1.1          2.1          3.1          4.1          5.1          6.1          7.1          8.1          9.1         10.1
    -14.379694   -10.286911   -10.175907   -10.166916   -10.163963   -10.161097   -10.160859    -0.957575    -0.815718    -0.736101

        11.1         12.1         13.1         14.1         15.1         16.1         17.1         18.1         19.1         20.1
     -0.686439    -0.626579    -0.559003    -0.498414    -0.470500    -0.449570    -0.434268    -0.414894    -0.406622    -0.388439

        21.1         22.1         23.1         24.1         25.1         26.1         27.1         28.1         29.1         30.1
     -0.388223    -0.388012    -0.384376    -0.364188    -0.351841    -0.328635    -0.324680    -0.319322    -0.017282    -0.016135

 Orbital energies for negative spin:

         1.1          2.1          3.1          4.1          5.1          6.1          7.1          8.1          9.1         10.1
    -14.375315   -10.271028   -10.175858   -10.166893   -10.163751   -10.161097   -10.160845    -0.935277    -0.815458    -0.735959

        11.1         12.1         13.1         14.1         15.1         16.1         17.1         18.1         19.1         20.1
     -0.685938    -0.626448    -0.558386    -0.470321    -0.449466    -0.434946    -0.431746    -0.414798    -0.388300    -0.384307

        21.1         22.1         23.1         24.1         25.1         26.1         27.1         28.1         29.1         30.1
     -0.379719    -0.379698    -0.364105    -0.351679    -0.328554    -0.324546    -0.319198    -0.248656     0.002366     0.004553


 HOMO    -27.1    -0.319198 =      -8.6858eV
 LUMO    -28.1    -0.248656 =      -6.7663eV
 LUMO-HOMO         0.070543 =       1.9196eV

 EXPECTATION VALUE OF S**2:             0.75853632

 Occupation number threshold for pseudo-canonical orbitals: 1.9990 (occupied), 0.0010 (virtual)

 Number of pseudo-canonical occupied orbitals per symmetry:   24
 Number of active natural orbitals per symmetry:               7

 Natural orbitals saved to record    2206.2 (Orbital set 3)

 Orbital spaces for UNO-CAS (Min. occupation: 0.020  Max. occupation: 1.980):

 Closed:       27
 Active:        1


 **********************************************************************************************************************************
 DATASETS  * FILE   NREC   LENGTH (MB)   RECORD NAMES
              1      19       35.32       500      610      700      900      950      970     1001      129      960     1100   
                                          VAR    BASINP    GEOM    SYMINP    ZMAT    AOBASIS   BASIS     P2S    ABASIS      S 
                                         1400     1410     1200     1210     1080     1600     1650     1700     1800   
                                           T        V       H0       H01     AOSYM     SMH    MOLCAS    OPER     GRID   

              2      15       40.96       700     1000      520     2100     1800     2200      520(1)  2201      520(2)  2202   
                                         GEOM     BASIS   MCVARS     RHF     GRID      UKS    MCVARS     UKS    MCVARS     UKS  
                                         1001     2203     2204     2205     2206   
                                         BASIS     UKS      UKS      UKS      UKS  

 PROGRAMS   *        TOTAL   UKS-SCF   UKS-SCF    DF-UKS    DF-UKS       INT    DF-UKS      OPTG    DF-UKS      OPTG    DF-UKS
 CPU TIMES  *      5848.43    393.47    176.57    417.66     14.72      0.24     11.16   4168.57     78.84    568.46      8.79
 REAL TIME  *      5876.91 SEC
 DISK USED  *       100.87 MB
 **********************************************************************************************************************************

 UB3LYP/TZVP//CF-UKS/SVP energy=   -290.395956437321

         UKS-SCF         UKS-SCF          DF-UKS          DF-UKS          DF-UKS    OPTG(DF-UKS)          DF-UKS    OPTG(DF-UKS)
   -290.39595644   -290.21873115   -290.21898680   -290.18651965   -289.86414891   -289.90371791   -289.90233869   -289.86525402
 **********************************************************************************************************************************
 Molpro calculation terminated with 2 warning(s)
