
 Primary working directories    : /mnt/storage/home/lb17101/scratch/1377594/molpro.ALtnu5H47I
 Secondary working directories  : /mnt/storage/home/lb17101/scratch/1377594/molpro.ALtnu5H47I
 Wavefunction directory         : /mnt/storage/home/lb17101/optimizations/10/
 Main file repository           : /mnt/storage/home/lb17101/optimizations/10/

 id        : simonbennie

 Nodes                   nprocs
 compute071.bc4.acrc.priv    1

 Using customized tuning parameters: mindgm=1; mindgv=20; mindgc=4; mindgr=1; noblas=0; minvec=7
 default implementation of scratch files=df  


 Variables initialized (924), CPU time= 0.00 sec
 memory,536,m
 
 geomtyp=xyz
 
 nosym
 noorient
 gdirect
 angstrom
 
 geometry=input.xyz
 Including file /mnt/storage/home/lb17101/optimizations/10/input.xyz
 
 set,charge=0
 
 basis=svp
 df-hf
 {cf-uks,pbe;}
 {optg,method=slrf,maxiter=50;
 constraint,1.600,angstrom,bond,atoms=[H10,C5]
 constraint,2.200,angstrom,bond,atoms=[H10,C17]
 constraint,180,deg,angle,atoms=[C5,H10,C17]
 {slopt;}}
 {cf-uks,pbe0;}
 {optg,method=slrf,maxiter=20;
 constraint,1.600,angstrom,bond,atoms=[H10,C5]
 constraint,2.200,angstrom,bond,atoms=[H10,C17]
 constraint,180,deg,angle,atoms=[C5,H10,C17]
 {slopt;}}
 {cf-uks,pbe;}
 basis=tzvp
 {cf-uks,pbe;}
 {cf-uks,pbe0;}
 {uks,pbe0;}
 {uks,b3lyp;}
 Commands  initialized (760), CPU time= 0.01 sec, 616 directives.
 Default parameters read. Elapsed time= 0.04 sec

 Checking input...
 Passed
1


                                         ***  PROGRAM SYSTEM MOLPRO  ***
                                       Copyright, TTI GmbH Stuttgart, 2015
                                    Version 2018.1 linked Oct 16 2018 14:32:03


 **********************************************************************************************************************************
 LABEL *                                                                                 
  64 bit serial version                                                                  DATE: 09-Nov-18          TIME: 14:56:35  
 **********************************************************************************************************************************

 SHA1:             d673ad554fd0a1ae99daa449513f8b88cca0f763
 **********************************************************************************************************************************
 SETTING GEOMTYP        =    XYZ

 Variable memory set to  536000000 words,  buffer space 

 ZSYMEL=NOSYM
 ZUNIT=ANG

 SETTING CHARGE         =     0.00000000D+00                                  
 SETTING BASIS          =    SVP


 Recomputing integrals since basis changed


 Using spherical harmonics

 Library entry C      S def2-SVP             selected for orbital group  1
 Library entry C      P def2-SVP             selected for orbital group  1
 Library entry C      D def2-SVP             selected for orbital group  1
 Library entry H      S def2-SVP             selected for orbital group  2
 Library entry H      P def2-SVP             selected for orbital group  2
 Library entry N      S def2-SVP             selected for orbital group  8
 Library entry N      P def2-SVP             selected for orbital group  8
 Library entry N      D def2-SVP             selected for orbital group  8


 PROGRAM * SEWARD (Integral evaluation for generally contracted gaussian basis sets)     Author: Roland Lindh, 1990

 Geometry written to block  1 of record 700


 Point group  C1  



 ATOMIC COORDINATES

 NR  ATOM    CHARGE       X              Y              Z

   1  C0      6.00  -15.641370747    4.440507963   -0.049754099
   2  C1      6.00  -12.737339891    4.465637486   -0.140167375
   3  H2      1.00  -16.452984854    4.362009759   -1.983315422
   4  H3      1.00  -16.391562141    6.159377510    0.885856613
   5  H4      1.00  -16.350492719    2.775164051    1.006098957
   6  C5      6.00  -11.740713253    6.806784179   -1.363174032
   7  C6      6.00  -11.691868632    2.010595906   -1.332047513
   8  H7      1.00  -12.059131143    4.477675291    1.873635711
   9  H8      1.00  -12.816334048    8.587533046   -1.256908787
  10  H9      1.00   -9.762548968    6.938438663   -1.991254644
  11  H10     1.00  -12.760792883    6.054981588   -6.888684292
  12  H11     1.00  -12.328168648    1.913494793   -3.335824861
  13  H12     1.00  -12.605734446    0.383795421   -0.365812386
  14  C13     6.00   -8.821789553    1.708632436   -1.189530685
  15  H14     1.00   -7.807109511    3.177308591   -2.288390688
  16  H15     1.00   -8.219027992   -0.147593098   -1.950649422
  17  H16     1.00   -8.140726956    1.825765183    0.791880384
  18  C17     6.00  -12.982218668    5.632782742   -8.912040694
  19  N18     7.00  -13.226364779    5.162744798  -11.053985496

 Bond lengths in Bohr (Angstrom)

 1-2  2.905546638  1-3  2.098461058  1-4  2.095869044  1-5  2.095483235  2-6  2.823114907
     ( 1.537549066)     ( 1.110457770)     ( 1.109086135)     ( 1.108881974)     ( 1.493928072)

  2- 7  2.922467721   2- 8  2.124974090   6- 9  2.083103196   6-10  2.079651918   7-12  2.104621106
       ( 1.546503317)       ( 1.124487862)       ( 1.102330739)       ( 1.100504402)       ( 1.113717527)

  7-13  2.101247455   7-14  2.889437125  11-18  2.078762221  14-15  2.096205750  14-16  2.094802249
       ( 1.111932268)       ( 1.529024279)       ( 1.100033595)       ( 1.109264312)       ( 1.108521612)

 14-17  2.098465193  18-19  2.206461087
       ( 1.110459958)       ( 1.167608924)

 Bond angles

  1-2-6  111.93115943   1-2-7  111.28297678   1-2-8  106.83125183   2-1-3  110.99066727

  2- 1- 4  111.37985148   2- 1- 5  111.14817415   2- 6- 9  120.29991886   2- 6-10  121.27389130

  2- 7-12  108.59604258   2- 7-13  107.89393921   2- 7-14  115.02504750   3- 1- 4  107.67204096

  3-1-5  107.67777862   4-1-5  107.80128520   6-2-7  113.18328669   6-2-8  107.04834525

  7- 2- 8  106.08604597   7-14-15  112.44125475   7-14-16  111.13069525   7-14-17  111.29175153

  9- 6-10  116.90071828  11-18-19  179.36634029  12- 7-13  105.69971320  12- 7-14  110.02606719

 13- 7-14  109.17241960  15-14-16  106.92329474  15-14-17  107.38331531  16-14-17  107.40616309

 NUCLEAR CHARGE:                   55
 NUMBER OF PRIMITIVE AOS:         259
 NUMBER OF SYMMETRY AOS:          252
 NUMBER OF CONTRACTIONS:          158   (  158A   )
 NUMBER OF CORE ORBITALS:           7   (    7A   )
 NUMBER OF VALENCE ORBITALS:       40   (   40A   )


 NUCLEAR REPULSION ENERGY  265.52795116


 Eigenvalues of metric

         1 0.183E-02 0.359E-02 0.451E-02 0.603E-02 0.838E-02 0.182E-01 0.195E-01 0.203E-01


 OPERATOR DM      FOR CENTER  0  COORDINATES:    0.000000    0.000000    0.000000


 **********************************************************************************************************************************
 DATASETS  * FILE   NREC   LENGTH (MB)   RECORD NAMES
              1      18       31.21       500      610      700      900      950      970     1000      129      960     1100   
                                          VAR    BASINP    GEOM    SYMINP    ZMAT    AOBASIS   BASIS     P2S    ABASIS      S 
                                         1400     1410     1200     1210     1080     1600     1650     1700   
                                           T        V       H0       H01     AOSYM     SMH    MOLCAS    OPER   

 PROGRAMS   *        TOTAL       INT
 CPU TIMES  *         0.41      0.29
 REAL TIME  *         0.71 SEC
 DISK USED  *        31.83 MB
 **********************************************************************************************************************************


 PROGRAM * RHF-SCF (OPEN SHELL)       Authors: W. Meyer, H.-J. Werner


 NUMBER OF ELECTRONS:      28+   27-    SPACE SYMMETRY=1    SPIN SYMMETRY: Doublet 
 CONVERGENCE THRESHOLDS:    1.00E-06 (Density)    1.00E-07 (Energy)
 INTEGRAL THRESHOLDS:       1.00E-11 (Initial)    1.00E-11 (Final)
 MAX. NUMBER OF ITERATIONS:       60
 INTERPOLATION TYPE:            DIIS
 INTERPOLATION STEPS:              2 (START)      1 (STEP)
 LEVEL SHIFTS:                 -0.60 (CLOSED) -0.30 (OPEN) 




 Basis set DEF2-SVP/JKFIT generated.     Number of basis functions:   560 

 Orbital guess generated from atomic densities. Full valence occupancy:   28
 Using density fitting in orbital guess

 Coulomb and exchange fitting
 Thresholds for fitting:       THRAO_COUL= 1.0D-14    THRAO_EXCH= 1.0D-12    THRMO= 1.0D-11    THRPROD= 1.0D-11    THRASM= 1.0D-11
                               THR2HLF=    1.0D-11

 Molecular orbital dump at record        2100.2

 Initial alpha occupancy:  28
 Initial beta  occupancy:  27
 Wave function symmetry:    1

 ITERATION   DDIFF            GRAD            ENERGY        2-EL.EN.            DIPOLE MOMENTS         DIIS   CPU(IT)  CPU(TOT)  ORB.
    1      0.000D+00      0.000D+00      -288.25645383    722.794989    0.18962    0.18373    2.07818    0      0.7      1.5     start
    2      0.000D+00      0.401D-02      -288.33272397    720.251142    0.15608    0.11928    1.55248    1      0.7      2.2     diag,B
    3      0.299D-02      0.157D-02      -288.34776947    720.373121    0.17027    0.15909    1.58025    2      0.7      2.8     diag,B
    4      0.149D-02      0.746D-03      -288.35372036    720.335213    0.17121    0.16652    1.51448    3      0.7      3.5     diag,B
    5      0.126D-02      0.205D-03      -288.35432294    720.307194    0.17304    0.17513    1.50618    4      0.7      4.2     diag,B
    6      0.483D-03      0.732D-04      -288.35441618    720.278524    0.17353    0.17879    1.50188    5      0.7      4.8     diag,B
    7      0.216D-03      0.221D-04      -288.35442487    720.270865    0.17353    0.17940    1.50022    6      0.7      5.5     fixocc
    8      0.691D-04      0.674D-05      -288.35442573    720.270536    0.17343    0.17928    1.49946    7      0.7      6.2     diag,B
    9      0.255D-04      0.221D-05      -288.35442585    720.270735    0.17338    0.17914    1.49927    8      0.7      6.8     diag,B
   10      0.952D-05      0.690D-06      -288.35442586    720.270891    0.17336    0.17910    1.49924    9      0.7      7.5     orth
   11      0.274D-05      0.291D-06      -288.35442586    720.270887    0.17335    0.17908    1.49924    9      0.7      8.2     diag,B
   12      0.139D-05      0.107D-06      -288.35442586    720.270874    0.17335    0.17908    1.49923    9      0.7      8.8     diag,B
   13      0.568D-06      0.380D-07      -288.35442586    720.270869    0.17335    0.17908    1.49923    0      0.7      9.5     orth

 Final alpha occupancy:  28
 Final beta  occupancy:  27

 !RHF STATE  1.1 Energy              -288.354425860902
 Nuclear energy                       265.52795116
 One-electron energy                 -914.01781158
 Two-electron energy                  360.13543455
 Virial quotient                       -1.00689725
 !RHF STATE  1.1 Dipole moment          0.17334716     0.17907993     1.49923217
 Dipole moment /Debye                   0.44057568     0.45514596     3.81041850

 Orbital energies:

         1.1          2.1          3.1          4.1          5.1          6.1          7.1          8.1          9.1         10.1
    -15.598977   -11.299413   -11.247726   -11.243403   -11.239307   -11.236487   -11.234455    -1.211737    -1.090196    -0.989546

        11.1         12.1         13.1         14.1         15.1         16.1         17.1         18.1         19.1         20.1
     -0.906750    -0.849458    -0.786725    -0.753575    -0.640503    -0.627685    -0.590293    -0.578661    -0.571756    -0.553396

        21.1         22.1         23.1         24.1         25.1         26.1         27.1         28.1         29.1         30.1
     -0.523029    -0.509800    -0.487434    -0.487111    -0.484821    -0.476290    -0.468021    -0.373833     0.152209     0.172455


 HOMO     28.1    -0.373833 =     -10.1725eV
 LUMO     29.1     0.152209 =       4.1418eV
 LUMO-HOMO         0.526042 =      14.3143eV


 **********************************************************************************************************************************
 DATASETS  * FILE   NREC   LENGTH (MB)   RECORD NAMES
              1      18       31.21       500      610      700      900      950      970     1000      129      960     1100   
                                          VAR    BASINP    GEOM    SYMINP    ZMAT    AOBASIS   BASIS     P2S    ABASIS      S 
                                         1400     1410     1200     1210     1080     1600     1650     1700   
                                           T        V       H0       H01     AOSYM     SMH    MOLCAS    OPER   

              2       4        3.88       700     1000      520     2100   
                                         GEOM     BASIS   MCVARS     RHF  

 PROGRAMS   *        TOTAL     DF-HF       INT
 CPU TIMES  *         9.94      9.53      0.29
 REAL TIME  *        10.56 SEC
 DISK USED  *        68.27 MB
 **********************************************************************************************************************************

 Density functional group PBE=PBEX+PBEC
 Functional: PBEX(Automatically generated (new) PBEX)                          Gradient terms: 1
 Functional: PBEC(Automatically generated (new) PBEC)                          Gradient terms: 1
 Use libxcgrid:  F
 Use grid at  1800.2

 Functional: PBEX                      Factor:  1.0000
 Functional: PBEC                      Factor:  1.0000

 Generated new metagrid on record  1800.2 with target accuracy 1.0D-06 and 64116 points in CPU time    1.2
 Computed new grid on record 1800.1 in CPU time    1.3
  129907 words reserved for DFT integration

 PROGRAM * UKS-SCF (Unrestricted Kohn-Sham)     Authors: W. Meyer, H.-J. Werner, P.J. Knowles, 1993

 NUMBER OF ELECTRONS:      28+   27-    SPACE SYMMETRY=1    SPIN SYMMETRY: Doublet 
 CONVERGENCE THRESHOLDS:    1.00E-06 (Density)    1.00E-06 (Energy)
 INTEGRAL THRESHOLDS:       1.00E-11 (Initial)    1.00E-11 (Final)
 MAX. NUMBER OF ITERATIONS:       60
 INTERPOLATION TYPE:            DIIS
 INTERPOLATION STEPS:              2 (START)      1 (STEP)
 LEVEL SHIFTS:                 -0.20 (ALPHA)  -0.20 (BETA) 



 Use fine grid record 1800.2 for energy threshold  1.0D-06

 Basis set DEF2-SVP/JFIT generated.      Number of basis functions:   475 
 Coulomb fitting
 Screening thresholds:    THRAO_COUL= 1.0D-14    THRAO= 1.0D-12    THROV= 1.0D-12

 Reserved 6 MW to cache 100.0% of significant integrals. CPU: 0.3 sec

 Molecular orbitals read from record     2100.2  Type=RHF/CANONICAL (state 1.1)

 Molecular orbital dump at record        2200.2

 Initial alpha occupation  28
 Initial beta  occupation  27

 ITERATION    DDIFF          GRAD             ENERGY        2-EL.EN.            DIPOLE MOMENTS         DIIS  CPU(IT) CPU(TOT)
    1      0.000D+00      0.000D+00      -289.85713932    803.747086    0.17335    0.17908    1.49923    0      0.5      0.8
    2      0.411D-02      0.217D-02      -289.89796926    806.756483    0.15414    0.12370    1.39917    1      0.6      1.4
    3      0.133D-02      0.435D-03      -289.90136315    805.382566    0.15121    0.11352    1.38265    2      0.5      1.9
    4      0.689D-03      0.179D-03      -289.90220015    805.890412    0.14684    0.09623    1.36471    3      0.6      2.5
    5      0.274D-03      0.759D-04      -289.90230653    805.825909    0.15160    0.10183    1.40752    4      0.5      3.0
    6      0.124D-03      0.794D-04      -289.90238831    805.763459    0.14856    0.09378    1.38210    5      0.6      3.6
    7      0.752D-04      0.200D-04      -289.90240258    805.776039    0.14924    0.09393    1.38971    6      0.6      4.1
    8      0.278D-04      0.770D-05      -289.90240492    805.777096    0.14922    0.09268    1.39049    7      0.6      4.7
    9      0.116D-04      0.258D-05      -289.90240522    805.777810    0.14932    0.09290    1.39089    8      0.5      5.2
   10      0.447D-05      0.118D-05      -289.90240526    805.776928    0.14932    0.09277    1.39116    8      0.6      5.8
   11      0.126D-05      0.265D-06      -289.90240527    805.776994    0.14932    0.09275    1.39119    8      0.5      6.3
   12      0.302D-06      0.116D-06      -289.90240527    805.777045    0.14932    0.09277    1.39118    8      0.6      6.9
   13      0.159D-06      0.578D-07      -289.90240527    805.777001    0.14932    0.09277    1.39119    7      0.6      7.4

 Final alpha occupancy:  28
 Final beta  occupancy:  27

 !UKS STATE  1.1 Energy              -289.902405266375
 Nuclear energy                       265.52795116
 One-electron energy                 -915.05336432
 Two-electron energy                  402.88850031
 Density functional                   -43.26549242     PBEX=-41.50794834 PBEC= -1.75754408
 Virial quotient                       -1.01207402
 !UKS STATE  1.1 Dipole moment          0.14932416     0.09276881     1.39118584
 Dipole moment /Debye                   0.37951930     0.23577934     3.53581010

 Orbital energies for positive spin:

         1.1          2.1          3.1          4.1          5.1          6.1          7.1          8.1          9.1         10.1
    -14.009341    -9.946098    -9.919312    -9.918534    -9.906280    -9.900443    -9.898445    -0.818899    -0.741910    -0.664369

        11.1         12.1         13.1         14.1         15.1         16.1         17.1         18.1         19.1         20.1
     -0.611917    -0.562408    -0.528967    -0.499305    -0.424594    -0.414627    -0.386898    -0.374491    -0.354350    -0.330846

        21.1         22.1         23.1         24.1         25.1         26.1         27.1         28.1         29.1         30.1
     -0.320372    -0.317255    -0.315641    -0.315498    -0.308238    -0.294814    -0.292682    -0.184519    -0.022294    -0.019275

 Orbital energies for negative spin:

         1.1          2.1          3.1          4.1          5.1          6.1          7.1          8.1          9.1         10.1
    -14.009338    -9.945938    -9.919214    -9.906287    -9.905846    -9.900190    -9.898466    -0.818823    -0.736845    -0.662007

        11.1         12.1         13.1         14.1         15.1         16.1         17.1         18.1         19.1         20.1
     -0.595945    -0.559059    -0.528234    -0.491758    -0.420197    -0.410081    -0.384630    -0.373367    -0.350193    -0.328897

        21.1         22.1         23.1         24.1         25.1         26.1         27.1         28.1         29.1         30.1
     -0.317669    -0.317143    -0.315473    -0.315390    -0.304102    -0.292342    -0.290218    -0.106515    -0.022043    -0.019103


 HOMO     28.1    -0.184519 =      -5.0210eV
 LUMO    -28.1    -0.106515 =      -2.8984eV
 LUMO-HOMO         0.078003 =       2.1226eV

 EXPECTATION VALUE OF S**2:             0.75335202

 Occupation number threshold for pseudo-canonical orbitals: 1.9990 (occupied), 0.0010 (virtual)

 Number of pseudo-canonical occupied orbitals per symmetry:   26
 Number of active natural orbitals per symmetry:               3

 Natural orbitals saved to record    2200.2 (Orbital set 3)

 Orbital spaces for UNO-CAS (Min. occupation: 0.020  Max. occupation: 1.980):

 Closed:       27
 Active:        1


 **********************************************************************************************************************************
 DATASETS  * FILE   NREC   LENGTH (MB)   RECORD NAMES
              1      19       33.26       500      610      700      900      950      970     1000      129      960     1100   
                                          VAR    BASINP    GEOM    SYMINP    ZMAT    AOBASIS   BASIS     P2S    ABASIS      S 
                                         1400     1410     1200     1210     1080     1600     1650     1700     1800   
                                           T        V       H0       H01     AOSYM     SMH    MOLCAS    OPER     GRID   

              2       6        7.61       700     1000      520     2100     1800     2200   
                                         GEOM     BASIS   MCVARS     RHF     GRID      UKS  

 PROGRAMS   *        TOTAL    DF-UKS     DF-HF       INT
 CPU TIMES  *        18.76      8.82      9.53      0.29
 REAL TIME  *        19.51 SEC
 DISK USED  *        68.27 MB
 **********************************************************************************************************************************


 PROGRAM * OPT (Geometry optimization)     Authors: F. Eckert and H.-J. Werner


 BFGS update of hessian


********** USER DEFINED INT/FIX/CONSTRAINTS ****************

List of primitive internal coordinates

     N      Name     Type   Natoms   Atom list

     1    Bo0001     Bond        2      H10  C5  
     2    Bo0002     Bond        2      H10  C17 
     3    An0001     Angle       3      C5   H10  C17 

List of user defined internal/fixed coordinates and constraints

- - - - - - - - - - - - - - - - - - - - - - - - - - - - - - - - - 
    N      Name   Type      Pname     Coeff       Value   Unit
- - - - - - - - - - - - - - - - - - - - - - - - - - - - - - - - - 
    1    Cns001    Con     Bo0001     1.000     1.60000 Angstrom
- - - - - - - - - - - - - - - - - - - - - - - - - - - - - - - - - 
    2    Cns002    Con     Bo0002     1.000     2.20000 Angstrom
- - - - - - - - - - - - - - - - - - - - - - - - - - - - - - - - - 
    3    Cns003    Con     An0001     1.000   180.00000   Degree
- - - - - - - - - - - - - - - - - - - - - - - - - - - - - - - - - 


******************************************************************



 *** Long output written to logfile /mnt/storage/home/lb17101/optimizations/10/10_1.60_2.20.log ***


 Geometry optimization using default procedure for command CF-UKS-SCF

 Geometry written to block  1 of record 700

 SLAPAF optimizer by R. Lindh and Ignacio F. Galvan entered

 Constraints section
ConstraintsConstraintsConstraintsConstraintsConstraintsConstraintsConstraintsConstraintsConstraintsConstraints
ConstraintsConstraintsConstraintsConstraintsConstraintsConstraintsConstraintsConstraintsConstraintsConstraints
Constraints                                                                                        Constraints
Constraints                                 C O N S T R A I N T S                                  Constraints
Constraints                                                                                        Constraints

************************************************************************************************************************
BO0001 = BOND       H10   C5
BO0002 = BOND       H10   C17
AN0001 = ANGLE      C5    H10   C17
VALUES
BO0001 =      1.60000000 ANGSTROM
BO0002 =      2.20000000 ANGSTROM
AN0001 =    180.00000000 DEGREE
************************************************************************************************************************


 *************************************************************
 * Values of the primitive constraints                       *
 *************************************************************
 BO0001   : Bond Length=  2.999881 / Angstrom  5.668953 / bohr
 BO0002   : Bond Length=  1.100034 / Angstrom  2.078762 / bohr
 AN0001   : Angle=      174.1655   / Degree    3.039761 / rad

 *******************************************
 * Values of the constraints   / au or rad *
 *******************************************
   Label        C         C0
 Cns001      5.668953  3.023562
 Cns002      2.078762  4.157397
 Cns003      3.039761  3.141593


 ITER.   ENERGY(OLD)    ENERGY(NEW)      DE          GRADMAX     GRADNORM    GRADRMS     STEPMAX     STEPLEN     STEPRMS   CPU-time
   1  -289.90240527  -289.90055963     0.00184563  0.00679270  0.00902195  0.00119499  0.30344127  0.92828719  0.01628574      9.98

 Constraints section
ConstraintsConstraintsConstraintsConstraintsConstraintsConstraintsConstraintsConstraintsConstraintsConstraints
ConstraintsConstraintsConstraintsConstraintsConstraintsConstraintsConstraintsConstraintsConstraintsConstraints
Constraints                                                                                        Constraints
Constraints                                 C O N S T R A I N T S                                  Constraints
Constraints                                                                                        Constraints

************************************************************************************************************************
BO0001 = BOND       H10   C5
BO0002 = BOND       H10   C17
AN0001 = ANGLE      C5    H10   C17
VALUES
BO0001 =      1.60000000 ANGSTROM
BO0002 =      2.20000000 ANGSTROM
AN0001 =    180.00000000 DEGREE
************************************************************************************************************************


 *************************************************************
 * Values of the primitive constraints                       *
 *************************************************************
 BO0001   : Bond Length=  2.973051 / Angstrom  5.618253 / bohr
 BO0002   : Bond Length=  1.121156 / Angstrom  2.118679 / bohr
 AN0001   : Angle=      174.2299   / Degree    3.040885 / rad

 *******************************************
 * Values of the constraints   / au or rad *
 *******************************************
   Label        C         C0
 Cns001      5.618253  3.023562
 Cns002      2.118679  4.157397
 Cns003      3.040885  3.141593

   2  -289.90055963  -289.89853573     0.00202391  0.02894959  0.04936543  0.00653861  0.19264522  0.59704327  0.01047444     19.97

 Constraints section
ConstraintsConstraintsConstraintsConstraintsConstraintsConstraintsConstraintsConstraintsConstraintsConstraints
ConstraintsConstraintsConstraintsConstraintsConstraintsConstraintsConstraintsConstraintsConstraintsConstraints
Constraints                                                                                        Constraints
Constraints                                 C O N S T R A I N T S                                  Constraints
Constraints                                                                                        Constraints

************************************************************************************************************************
BO0001 = BOND       H10   C5
BO0002 = BOND       H10   C17
AN0001 = ANGLE      C5    H10   C17
VALUES
BO0001 =      1.60000000 ANGSTROM
BO0002 =      2.20000000 ANGSTROM
AN0001 =    180.00000000 DEGREE
************************************************************************************************************************


 *************************************************************
 * Values of the primitive constraints                       *
 *************************************************************
 BO0001   : Bond Length=  2.917938 / Angstrom  5.514103 / bohr
 BO0002   : Bond Length=  1.164406 / Angstrom  2.200408 / bohr
 AN0001   : Angle=      174.4428   / Degree    3.044600 / rad

 *******************************************
 * Values of the constraints   / au or rad *
 *******************************************
   Label        C         C0
 Cns001      5.514103  3.023562
 Cns002      2.200408  4.157397
 Cns003      3.044600  3.141593

   3  -289.89853573  -289.89607030     0.00246542  0.05119022  0.07234438  0.00958225  0.07118683  0.14880814  0.00261067     29.32

 Constraints section
ConstraintsConstraintsConstraintsConstraintsConstraintsConstraintsConstraintsConstraintsConstraintsConstraints
ConstraintsConstraintsConstraintsConstraintsConstraintsConstraintsConstraintsConstraintsConstraintsConstraints
Constraints                                                                                        Constraints
Constraints                                 C O N S T R A I N T S                                  Constraints
Constraints                                                                                        Constraints

************************************************************************************************************************
BO0001 = BOND       H10   C5
BO0002 = BOND       H10   C17
AN0001 = ANGLE      C5    H10   C17
VALUES
BO0001 =      1.60000000 ANGSTROM
BO0002 =      2.20000000 ANGSTROM
AN0001 =    180.00000000 DEGREE
************************************************************************************************************************


 *************************************************************
 * Values of the primitive constraints                       *
 *************************************************************
 BO0001   : Bond Length=  2.880581 / Angstrom  5.443510 / bohr
 BO0002   : Bond Length=  1.193769 / Angstrom  2.255896 / bohr
 AN0001   : Angle=      174.6012   / Degree    3.047366 / rad

 *******************************************
 * Values of the constraints   / au or rad *
 *******************************************
   Label        C         C0
 Cns001      5.443510  3.023562
 Cns002      2.255896  4.157397
 Cns003      3.047366  3.141593

   4  -289.89607030  -289.88356921     0.01250109  0.05984263  0.08529731  0.01129790  0.24592986  0.74872640  0.01313555     39.67

 Constraints section
ConstraintsConstraintsConstraintsConstraintsConstraintsConstraintsConstraintsConstraintsConstraintsConstraints
ConstraintsConstraintsConstraintsConstraintsConstraintsConstraintsConstraintsConstraintsConstraintsConstraints
Constraints                                                                                        Constraints
Constraints                                 C O N S T R A I N T S                                  Constraints
Constraints                                                                                        Constraints

************************************************************************************************************************
BO0001 = BOND       H10   C5
BO0002 = BOND       H10   C17
AN0001 = ANGLE      C5    H10   C17
VALUES
BO0001 =      1.60000000 ANGSTROM
BO0002 =      2.20000000 ANGSTROM
AN0001 =    180.00000000 DEGREE
************************************************************************************************************************


 *************************************************************
 * Values of the primitive constraints                       *
 *************************************************************
 BO0001   : Bond Length=  2.832150 / Angstrom  5.351988 / bohr
 BO0002   : Bond Length=  1.232144 / Angstrom  2.328414 / bohr
 AN0001   : Angle=      174.8042   / Degree    3.050909 / rad

 *******************************************
 * Values of the constraints   / au or rad *
 *******************************************
   Label        C         C0
 Cns001      5.351988  3.023562
 Cns002      2.328414  4.157397
 Cns003      3.050909  3.141593

   5  -289.88356921  -289.87067100     0.01289820  0.06744334  0.13676649  0.01811516  0.19054322  0.56406683  0.00989591     49.56

 Constraints section
ConstraintsConstraintsConstraintsConstraintsConstraintsConstraintsConstraintsConstraintsConstraintsConstraints
ConstraintsConstraintsConstraintsConstraintsConstraintsConstraintsConstraintsConstraintsConstraintsConstraints
Constraints                                                                                        Constraints
Constraints                                 C O N S T R A I N T S                                  Constraints
Constraints                                                                                        Constraints

************************************************************************************************************************
BO0001 = BOND       H10   C5
BO0002 = BOND       H10   C17
AN0001 = ANGLE      C5    H10   C17
VALUES
BO0001 =      1.60000000 ANGSTROM
BO0002 =      2.20000000 ANGSTROM
AN0001 =    180.00000000 DEGREE
************************************************************************************************************************


 *************************************************************
 * Values of the primitive constraints                       *
 *************************************************************
 BO0001   : Bond Length=  2.763334 / Angstrom  5.221945 / bohr
 BO0002   : Bond Length=  1.286382 / Angstrom  2.430909 / bohr
 AN0001   : Angle=      175.0851   / Degree    3.055811 / rad

 *******************************************
 * Values of the constraints   / au or rad *
 *******************************************
   Label        C         C0
 Cns001      5.221945  3.023562
 Cns002      2.430909  4.157397
 Cns003      3.055811  3.141593

   6  -289.87067100  -289.85824447     0.01242653  0.08538933  0.17417619  0.02307020  0.09195632  0.20616796  0.00361698     59.47

 Constraints section
ConstraintsConstraintsConstraintsConstraintsConstraintsConstraintsConstraintsConstraintsConstraintsConstraints
ConstraintsConstraintsConstraintsConstraintsConstraintsConstraintsConstraintsConstraintsConstraintsConstraints
Constraints                                                                                        Constraints
Constraints                                 C O N S T R A I N T S                                  Constraints
Constraints                                                                                        Constraints

************************************************************************************************************************
BO0001 = BOND       H10   C5
BO0002 = BOND       H10   C17
AN0001 = ANGLE      C5    H10   C17
VALUES
BO0001 =      1.60000000 ANGSTROM
BO0002 =      2.20000000 ANGSTROM
AN0001 =    180.00000000 DEGREE
************************************************************************************************************************


 *************************************************************
 * Values of the primitive constraints                       *
 *************************************************************
 BO0001   : Bond Length=  2.715262 / Angstrom  5.131102 / bohr
 BO0002   : Bond Length=  1.324263 / Angstrom  2.502494 / bohr
 AN0001   : Angle=      175.2865   / Degree    3.059326 / rad

 *******************************************
 * Values of the constraints   / au or rad *
 *******************************************
   Label        C         C0
 Cns001      5.131102  3.023562
 Cns002      2.502494  4.157397
 Cns003      3.059326  3.141593

   7  -289.85824447  -289.85234928     0.00589519  0.10357142  0.20802795  0.02755397  0.33460154  0.76853002  0.01348298     69.34

 Constraints section
ConstraintsConstraintsConstraintsConstraintsConstraintsConstraintsConstraintsConstraintsConstraintsConstraints
ConstraintsConstraintsConstraintsConstraintsConstraintsConstraintsConstraintsConstraintsConstraintsConstraints
Constraints                                                                                        Constraints
Constraints                                 C O N S T R A I N T S                                  Constraints
Constraints                                                                                        Constraints

************************************************************************************************************************
BO0001 = BOND       H10   C5
BO0002 = BOND       H10   C17
AN0001 = ANGLE      C5    H10   C17
VALUES
BO0001 =      1.60000000 ANGSTROM
BO0002 =      2.20000000 ANGSTROM
AN0001 =    180.00000000 DEGREE
************************************************************************************************************************


 *************************************************************
 * Values of the primitive constraints                       *
 *************************************************************
 BO0001   : Bond Length=  2.655926 / Angstrom  5.018973 / bohr
 BO0002   : Bond Length=  1.370836 / Angstrom  2.590504 / bohr
 AN0001   : Angle=      175.5113   / Degree    3.063250 / rad

 *******************************************
 * Values of the constraints   / au or rad *
 *******************************************
   Label        C         C0
 Cns001      5.018973  3.023562
 Cns002      2.590504  4.157397
 Cns003      3.063250  3.141593

   8  -289.85234928  -289.83972743     0.01262185  0.09686031  0.20799983  0.02755025  0.24318724  0.80205907  0.01407121     79.23

 Constraints section
ConstraintsConstraintsConstraintsConstraintsConstraintsConstraintsConstraintsConstraintsConstraintsConstraints
ConstraintsConstraintsConstraintsConstraintsConstraintsConstraintsConstraintsConstraintsConstraintsConstraints
Constraints                                                                                        Constraints
Constraints                                 C O N S T R A I N T S                                  Constraints
Constraints                                                                                        Constraints

************************************************************************************************************************
BO0001 = BOND       H10   C5
BO0002 = BOND       H10   C17
AN0001 = ANGLE      C5    H10   C17
VALUES
BO0001 =      1.60000000 ANGSTROM
BO0002 =      2.20000000 ANGSTROM
AN0001 =    180.00000000 DEGREE
************************************************************************************************************************


 *************************************************************
 * Values of the primitive constraints                       *
 *************************************************************
 BO0001   : Bond Length=  2.607652 / Angstrom  4.927748 / bohr
 BO0002   : Bond Length=  1.408812 / Angstrom  2.662269 / bohr
 AN0001   : Angle=      175.7096   / Degree    3.066712 / rad

 *******************************************
 * Values of the constraints   / au or rad *
 *******************************************
   Label        C         C0
 Cns001      4.927748  3.023562
 Cns002      2.662269  4.157397
 Cns003      3.066712  3.141593

   9  -289.83972743  -289.83576558     0.00396184  0.11954753  0.23270760  0.03082287  0.21503695  0.68206131  0.01196599     89.78

 Constraints section
ConstraintsConstraintsConstraintsConstraintsConstraintsConstraintsConstraintsConstraintsConstraintsConstraints
ConstraintsConstraintsConstraintsConstraintsConstraintsConstraintsConstraintsConstraintsConstraintsConstraints
Constraints                                                                                        Constraints
Constraints                                 C O N S T R A I N T S                                  Constraints
Constraints                                                                                        Constraints

************************************************************************************************************************
BO0001 = BOND       H10   C5
BO0002 = BOND       H10   C17
AN0001 = ANGLE      C5    H10   C17
VALUES
BO0001 =      1.60000000 ANGSTROM
BO0002 =      2.20000000 ANGSTROM
AN0001 =    180.00000000 DEGREE
************************************************************************************************************************


 *************************************************************
 * Values of the primitive constraints                       *
 *************************************************************
 BO0001   : Bond Length=  2.545250 / Angstrom  4.809826 / bohr
 BO0002   : Bond Length=  1.457808 / Angstrom  2.754858 / bohr
 AN0001   : Angle=      175.9742   / Degree    3.071329 / rad

 *******************************************
 * Values of the constraints   / au or rad *
 *******************************************
   Label        C         C0
 Cns001      4.809826  3.023562
 Cns002      2.754858  4.157397
 Cns003      3.071329  3.141593

  10  -289.83576558  -289.80905743     0.02670815  0.11628126  0.19631498  0.02600255  0.27310399  0.40575280  0.00711847    100.91

 Constraints section
ConstraintsConstraintsConstraintsConstraintsConstraintsConstraintsConstraintsConstraintsConstraintsConstraints
ConstraintsConstraintsConstraintsConstraintsConstraintsConstraintsConstraintsConstraintsConstraintsConstraints
Constraints                                                                                        Constraints
Constraints                                 C O N S T R A I N T S                                  Constraints
Constraints                                                                                        Constraints

************************************************************************************************************************
BO0001 = BOND       H10   C5
BO0002 = BOND       H10   C17
AN0001 = ANGLE      C5    H10   C17
VALUES
BO0001 =      1.60000000 ANGSTROM
BO0002 =      2.20000000 ANGSTROM
AN0001 =    180.00000000 DEGREE
************************************************************************************************************************


 *************************************************************
 * Values of the primitive constraints                       *
 *************************************************************
 BO0001   : Bond Length=  2.338864 / Angstrom  4.419812 / bohr
 BO0002   : Bond Length=  1.619859 / Angstrom  3.061090 / bohr
 AN0001   : Angle=      176.7514   / Degree    3.084893 / rad

 *******************************************
 * Values of the constraints   / au or rad *
 *******************************************
   Label        C         C0
 Cns001      4.419812  3.023562
 Cns002      3.061090  4.157397
 Cns003      3.084893  3.141593

  11  -289.80905743  -289.81607202    -0.00701459  0.12232536  0.19570741  0.02592208  0.14731138  0.27975537  0.00490799    112.17

 Constraints section
ConstraintsConstraintsConstraintsConstraintsConstraintsConstraintsConstraintsConstraintsConstraintsConstraints
ConstraintsConstraintsConstraintsConstraintsConstraintsConstraintsConstraintsConstraintsConstraintsConstraints
Constraints                                                                                        Constraints
Constraints                                 C O N S T R A I N T S                                  Constraints
Constraints                                                                                        Constraints

************************************************************************************************************************
BO0001 = BOND       H10   C5
BO0002 = BOND       H10   C17
AN0001 = ANGLE      C5    H10   C17
VALUES
BO0001 =      1.60000000 ANGSTROM
BO0002 =      2.20000000 ANGSTROM
AN0001 =    180.00000000 DEGREE
************************************************************************************************************************


 *************************************************************
 * Values of the primitive constraints                       *
 *************************************************************
 BO0001   : Bond Length=  2.249715 / Angstrom  4.251345 / bohr
 BO0002   : Bond Length=  1.689857 / Angstrom  3.193367 / bohr
 AN0001   : Angle=      177.1416   / Degree    3.091705 / rad

 *******************************************
 * Values of the constraints   / au or rad *
 *******************************************
   Label        C         C0
 Cns001      4.251345  3.023562
 Cns002      3.193367  4.157397
 Cns003      3.091705  3.141593

  12  -289.81607202  -289.81809570    -0.00202368  0.06246261  0.12603542  0.01669380  0.18503306  0.41925987  0.00735544    123.31

 Constraints section
ConstraintsConstraintsConstraintsConstraintsConstraintsConstraintsConstraintsConstraintsConstraintsConstraints
ConstraintsConstraintsConstraintsConstraintsConstraintsConstraintsConstraintsConstraintsConstraintsConstraints
Constraints                                                                                        Constraints
Constraints                                 C O N S T R A I N T S                                  Constraints
Constraints                                                                                        Constraints

************************************************************************************************************************
BO0001 = BOND       H10   C5
BO0002 = BOND       H10   C17
AN0001 = ANGLE      C5    H10   C17
VALUES
BO0001 =      1.60000000 ANGSTROM
BO0002 =      2.20000000 ANGSTROM
AN0001 =    180.00000000 DEGREE
************************************************************************************************************************


 *************************************************************
 * Values of the primitive constraints                       *
 *************************************************************
 BO0001   : Bond Length=  2.187257 / Angstrom  4.133316 / bohr
 BO0002   : Bond Length=  1.738898 / Angstrom  3.286041 / bohr
 AN0001   : Angle=      177.3869   / Degree    3.095985 / rad

 *******************************************
 * Values of the constraints   / au or rad *
 *******************************************
   Label        C         C0
 Cns001      4.133316  3.023562
 Cns002      3.286041  4.157397
 Cns003      3.095985  3.141593

  13  -289.81809570  -289.81174786     0.00634785  0.08337426  0.10853930  0.01437638  0.29918721  0.66904283  0.01173759    134.52

 Constraints section
ConstraintsConstraintsConstraintsConstraintsConstraintsConstraintsConstraintsConstraintsConstraintsConstraints
ConstraintsConstraintsConstraintsConstraintsConstraintsConstraintsConstraintsConstraintsConstraintsConstraints
Constraints                                                                                        Constraints
Constraints                                 C O N S T R A I N T S                                  Constraints
Constraints                                                                                        Constraints

************************************************************************************************************************
BO0001 = BOND       H10   C5
BO0002 = BOND       H10   C17
AN0001 = ANGLE      C5    H10   C17
VALUES
BO0001 =      1.60000000 ANGSTROM
BO0002 =      2.20000000 ANGSTROM
AN0001 =    180.00000000 DEGREE
************************************************************************************************************************


 *************************************************************
 * Values of the primitive constraints                       *
 *************************************************************
 BO0001   : Bond Length=  2.076714 / Angstrom  3.924421 / bohr
 BO0002   : Bond Length=  1.825694 / Angstrom  3.450061 / bohr
 AN0001   : Angle=      177.1549   / Degree    3.091935 / rad

 *******************************************
 * Values of the constraints   / au or rad *
 *******************************************
   Label        C         C0
 Cns001      3.924421  3.023562
 Cns002      3.450061  4.157397
 Cns003      3.091935  3.141593

  14  -289.81174786  -289.80658348     0.00516437  0.06263467  0.08902570  0.01179174  0.21370907  0.31895655  0.00559573    145.55

 Constraints section
ConstraintsConstraintsConstraintsConstraintsConstraintsConstraintsConstraintsConstraintsConstraintsConstraints
ConstraintsConstraintsConstraintsConstraintsConstraintsConstraintsConstraintsConstraintsConstraintsConstraints
Constraints                                                                                        Constraints
Constraints                                 C O N S T R A I N T S                                  Constraints
Constraints                                                                                        Constraints

************************************************************************************************************************
BO0001 = BOND       H10   C5
BO0002 = BOND       H10   C17
AN0001 = ANGLE      C5    H10   C17
VALUES
BO0001 =      1.60000000 ANGSTROM
BO0002 =      2.20000000 ANGSTROM
AN0001 =    180.00000000 DEGREE
************************************************************************************************************************


 *************************************************************
 * Values of the primitive constraints                       *
 *************************************************************
 BO0001   : Bond Length=  1.957525 / Angstrom  3.699186 / bohr
 BO0002   : Bond Length=  1.919279 / Angstrom  3.626911 / bohr
  Valence angle close to end in range of definition
 AN0001   : Angle=      177.8602   / Degree    3.104245 / rad

 *******************************************
 * Values of the constraints   / au or rad *
 *******************************************
   Label        C         C0
 Cns001      3.699186  3.023562
 Cns002      3.626911  4.157397
 Cns003      3.104245  3.141593

  15  -289.80658348  -289.80180999     0.00477350  0.03647767  0.07422464  0.00983129  0.14085931  0.30893561  0.00541992    156.47

 Constraints section
ConstraintsConstraintsConstraintsConstraintsConstraintsConstraintsConstraintsConstraintsConstraintsConstraints
ConstraintsConstraintsConstraintsConstraintsConstraintsConstraintsConstraintsConstraintsConstraintsConstraints
Constraints                                                                                        Constraints
Constraints                                 C O N S T R A I N T S                                  Constraints
Constraints                                                                                        Constraints

************************************************************************************************************************
BO0001 = BOND       H10   C5
BO0002 = BOND       H10   C17
AN0001 = ANGLE      C5    H10   C17
VALUES
BO0001 =      1.60000000 ANGSTROM
BO0002 =      2.20000000 ANGSTROM
AN0001 =    180.00000000 DEGREE
************************************************************************************************************************


 *************************************************************
 * Values of the primitive constraints                       *
 *************************************************************
 BO0001   : Bond Length=  1.895154 / Angstrom  3.581323 / bohr
 BO0002   : Bond Length=  1.968251 / Angstrom  3.719455 / bohr
  Valence angle close to end in range of definition
 AN0001   : Angle=      178.2129   / Degree    3.110402 / rad

 *******************************************
 * Values of the constraints   / au or rad *
 *******************************************
   Label        C         C0
 Cns001      3.581323  3.023562
 Cns002      3.719455  4.157397
 Cns003      3.110402  3.141593

  16  -289.80180999  -289.80029914     0.00151085  0.04191791  0.08453329  0.01119671  0.16087616  0.34289060  0.00601562    166.92

 Constraints section
ConstraintsConstraintsConstraintsConstraintsConstraintsConstraintsConstraintsConstraintsConstraintsConstraints
ConstraintsConstraintsConstraintsConstraintsConstraintsConstraintsConstraintsConstraintsConstraintsConstraints
Constraints                                                                                        Constraints
Constraints                                 C O N S T R A I N T S                                  Constraints
Constraints                                                                                        Constraints

************************************************************************************************************************
BO0001 = BOND       H10   C5
BO0002 = BOND       H10   C17
AN0001 = ANGLE      C5    H10   C17
VALUES
BO0001 =      1.60000000 ANGSTROM
BO0002 =      2.20000000 ANGSTROM
AN0001 =    180.00000000 DEGREE
************************************************************************************************************************


 *************************************************************
 * Values of the primitive constraints                       *
 *************************************************************
 BO0001   : Bond Length=  1.832786 / Angstrom  3.463463 / bohr
 BO0002   : Bond Length=  2.017221 / Angstrom  3.811996 / bohr
  Valence angle close to end in range of definition
 AN0001   : Angle=      178.5181   / Degree    3.115729 / rad

 *******************************************
 * Values of the constraints   / au or rad *
 *******************************************
   Label        C         C0
 Cns001      3.463463  3.023562
 Cns002      3.811996  4.157397
 Cns003      3.115729  3.141593

  17  -289.80029914  -289.79029860     0.01000054  0.05330706  0.09377094  0.01242026  0.20076271  0.38530399  0.00675972    178.04

 Constraints section
ConstraintsConstraintsConstraintsConstraintsConstraintsConstraintsConstraintsConstraintsConstraintsConstraints
ConstraintsConstraintsConstraintsConstraintsConstraintsConstraintsConstraintsConstraintsConstraintsConstraints
Constraints                                                                                        Constraints
Constraints                                 C O N S T R A I N T S                                  Constraints
Constraints                                                                                        Constraints

************************************************************************************************************************
BO0001 = BOND       H10   C5
BO0002 = BOND       H10   C17
AN0001 = ANGLE      C5    H10   C17
VALUES
BO0001 =      1.60000000 ANGSTROM
BO0002 =      2.20000000 ANGSTROM
AN0001 =    180.00000000 DEGREE
************************************************************************************************************************


 *************************************************************
 * Values of the primitive constraints                       *
 *************************************************************
 BO0001   : Bond Length=  1.770423 / Angstrom  3.345614 / bohr
 BO0002   : Bond Length=  2.066188 / Angstrom  3.904529 / bohr
  Valence angle close to end in range of definition
 AN0001   : Angle=      178.8572   / Degree    3.121647 / rad

 *******************************************
 * Values of the constraints   / au or rad *
 *******************************************
   Label        C         C0
 Cns001      3.345614  3.023562
 Cns002      3.904529  4.157397
 Cns003      3.121647  3.141593

  18  -289.79029860  -289.79737142    -0.00707282  0.16677658  0.24797985  0.03284573  0.20740123  0.43820549  0.00768782    189.37

 Constraints section
ConstraintsConstraintsConstraintsConstraintsConstraintsConstraintsConstraintsConstraintsConstraintsConstraints
ConstraintsConstraintsConstraintsConstraintsConstraintsConstraintsConstraintsConstraintsConstraintsConstraints
Constraints                                                                                        Constraints
Constraints                                 C O N S T R A I N T S                                  Constraints
Constraints                                                                                        Constraints

************************************************************************************************************************
BO0001 = BOND       H10   C5
BO0002 = BOND       H10   C17
AN0001 = ANGLE      C5    H10   C17
VALUES
BO0001 =      1.60000000 ANGSTROM
BO0002 =      2.20000000 ANGSTROM
AN0001 =    180.00000000 DEGREE
************************************************************************************************************************


 *************************************************************
 * Values of the primitive constraints                       *
 *************************************************************
 BO0001   : Bond Length=  1.700283 / Angstrom  3.213069 / bohr
 BO0002   : Bond Length=  2.121260 / Angstrom  4.008601 / bohr
  Valence angle close to end in range of definition
 AN0001   : Angle=      179.3230   / Degree    3.129777 / rad

 *******************************************
 * Values of the constraints   / au or rad *
 *******************************************
   Label        C         C0
 Cns001      3.213069  3.023562
 Cns002      4.008601  4.157397
 Cns003      3.129777  3.141593

  19  -289.79737142  -289.81491032    -0.01753890  0.07758532  0.12725912  0.01685588  0.34140035  1.09940269  0.01928777    201.88

 Constraints section
ConstraintsConstraintsConstraintsConstraintsConstraintsConstraintsConstraintsConstraintsConstraintsConstraints
ConstraintsConstraintsConstraintsConstraintsConstraintsConstraintsConstraintsConstraintsConstraintsConstraints
Constraints                                                                                        Constraints
Constraints                                 C O N S T R A I N T S                                  Constraints
Constraints                                                                                        Constraints

************************************************************************************************************************
BO0001 = BOND       H10   C5
BO0002 = BOND       H10   C17
AN0001 = ANGLE      C5    H10   C17
VALUES
BO0001 =      1.60000000 ANGSTROM
BO0002 =      2.20000000 ANGSTROM
AN0001 =    180.00000000 DEGREE
************************************************************************************************************************


 *************************************************************
 * Values of the primitive constraints                       *
 *************************************************************
 BO0001   : Bond Length=  1.630686 / Angstrom  3.081550 / bohr
 BO0002   : Bond Length=  2.175906 / Angstrom  4.111866 / bohr
  Valence angle close to end in range of definition
 AN0001   : Angle=      179.6771   / Degree    3.135957 / rad

 *******************************************
 * Values of the constraints   / au or rad *
 *******************************************
   Label        C         C0
 Cns001      3.081550  3.023562
 Cns002      4.111866  4.157397
 Cns003      3.135957  3.141593

  20  -289.81491032  -289.82172865    -0.00681833  0.08601441  0.10256092  0.01358453  0.08886645  0.26277447  0.00461008    212.62

 Constraints section
ConstraintsConstraintsConstraintsConstraintsConstraintsConstraintsConstraintsConstraintsConstraintsConstraints
ConstraintsConstraintsConstraintsConstraintsConstraintsConstraintsConstraintsConstraintsConstraintsConstraints
Constraints                                                                                        Constraints
Constraints                                 C O N S T R A I N T S                                  Constraints
Constraints                                                                                        Constraints

************************************************************************************************************************
BO0001 = BOND       H10   C5
BO0002 = BOND       H10   C17
AN0001 = ANGLE      C5    H10   C17
VALUES
BO0001 =      1.60000000 ANGSTROM
BO0002 =      2.20000000 ANGSTROM
AN0001 =    180.00000000 DEGREE
************************************************************************************************************************


 *************************************************************
 * Values of the primitive constraints                       *
 *************************************************************
 BO0001   : Bond Length=  1.600000 / Angstrom  3.023562 / bohr
 BO0002   : Bond Length=  2.200000 / Angstrom  4.157397 / bohr
  Valence angle close to end in range of definition
 AN0001   : Angle=      179.7227   / Degree    3.136753 / rad

 *******************************************
 * Values of the constraints   / au or rad *
 *******************************************
   Label        C         C0
 Cns001      3.023562  3.023562
 Cns002      4.157397  4.157397
 Cns003      3.136753  3.141593

  21  -289.82172865  -289.82489325    -0.00316460  0.08458374  0.09824949  0.01301346  0.15872640  0.45316967  0.00795035    223.69

 Constraints section
ConstraintsConstraintsConstraintsConstraintsConstraintsConstraintsConstraintsConstraintsConstraintsConstraints
ConstraintsConstraintsConstraintsConstraintsConstraintsConstraintsConstraintsConstraintsConstraintsConstraints
Constraints                                                                                        Constraints
Constraints                                 C O N S T R A I N T S                                  Constraints
Constraints                                                                                        Constraints

************************************************************************************************************************
BO0001 = BOND       H10   C5
BO0002 = BOND       H10   C17
AN0001 = ANGLE      C5    H10   C17
VALUES
BO0001 =      1.60000000 ANGSTROM
BO0002 =      2.20000000 ANGSTROM
AN0001 =    180.00000000 DEGREE
************************************************************************************************************************


 *************************************************************
 * Values of the primitive constraints                       *
 *************************************************************
 BO0001   : Bond Length=  1.600000 / Angstrom  3.023562 / bohr
 BO0002   : Bond Length=  2.200000 / Angstrom  4.157397 / bohr
  Valence angle close to end in range of definition
 AN0001   : Angle=      179.8190   / Degree    3.138434 / rad

 *******************************************
 * Values of the constraints   / au or rad *
 *******************************************
   Label        C         C0
 Cns001      3.023562  3.023562
 Cns002      4.157397  4.157397
 Cns003      3.138434  3.141593

  22  -289.82489325  -289.82599427    -0.00110102  0.07381183  0.09014106  0.01193948  0.16705928  0.31236715  0.00548013    234.93

 Constraints section
ConstraintsConstraintsConstraintsConstraintsConstraintsConstraintsConstraintsConstraintsConstraintsConstraints
ConstraintsConstraintsConstraintsConstraintsConstraintsConstraintsConstraintsConstraintsConstraintsConstraints
Constraints                                                                                        Constraints
Constraints                                 C O N S T R A I N T S                                  Constraints
Constraints                                                                                        Constraints

************************************************************************************************************************
BO0001 = BOND       H10   C5
BO0002 = BOND       H10   C17
AN0001 = ANGLE      C5    H10   C17
VALUES
BO0001 =      1.60000000 ANGSTROM
BO0002 =      2.20000000 ANGSTROM
AN0001 =    180.00000000 DEGREE
************************************************************************************************************************


 *************************************************************
 * Values of the primitive constraints                       *
 *************************************************************
 BO0001   : Bond Length=  1.600000 / Angstrom  3.023562 / bohr
 BO0002   : Bond Length=  2.200000 / Angstrom  4.157397 / bohr
  Valence angle close to end in range of definition
 AN0001   : Angle=      179.5215   / Degree    3.133242 / rad

 *******************************************
 * Values of the constraints   / au or rad *
 *******************************************
   Label        C         C0
 Cns001      3.023562  3.023562
 Cns002      4.157397  4.157397
 Cns003      3.133242  3.141593

  23  -289.82599427  -289.82592618     0.00006809  0.06701488  0.08383310  0.01110397  0.34749756  0.62563526  0.01097606    247.09

 Constraints section
ConstraintsConstraintsConstraintsConstraintsConstraintsConstraintsConstraintsConstraintsConstraintsConstraints
ConstraintsConstraintsConstraintsConstraintsConstraintsConstraintsConstraintsConstraintsConstraintsConstraints
Constraints                                                                                        Constraints
Constraints                                 C O N S T R A I N T S                                  Constraints
Constraints                                                                                        Constraints

************************************************************************************************************************
BO0001 = BOND       H10   C5
BO0002 = BOND       H10   C17
AN0001 = ANGLE      C5    H10   C17
VALUES
BO0001 =      1.60000000 ANGSTROM
BO0002 =      2.20000000 ANGSTROM
AN0001 =    180.00000000 DEGREE
************************************************************************************************************************


 *************************************************************
 * Values of the primitive constraints                       *
 *************************************************************
 BO0001   : Bond Length=  1.600000 / Angstrom  3.023562 / bohr
 BO0002   : Bond Length=  2.200000 / Angstrom  4.157397 / bohr
  Valence angle close to end in range of definition
 AN0001   : Angle=      179.9157   / Degree    3.140121 / rad

 *******************************************
 * Values of the constraints   / au or rad *
 *******************************************
   Label        C         C0
 Cns001      3.023562  3.023562
 Cns002      4.157397  4.157397
 Cns003      3.140121  3.141593

  24  -289.82592618  -289.82564000     0.00028618  0.05946366  0.08129441  0.01076771  0.48276533  1.21160801  0.02125628    258.46

 Constraints section
ConstraintsConstraintsConstraintsConstraintsConstraintsConstraintsConstraintsConstraintsConstraintsConstraints
ConstraintsConstraintsConstraintsConstraintsConstraintsConstraintsConstraintsConstraintsConstraintsConstraints
Constraints                                                                                        Constraints
Constraints                                 C O N S T R A I N T S                                  Constraints
Constraints                                                                                        Constraints

************************************************************************************************************************
BO0001 = BOND       H10   C5
BO0002 = BOND       H10   C17
AN0001 = ANGLE      C5    H10   C17
VALUES
BO0001 =      1.60000000 ANGSTROM
BO0002 =      2.20000000 ANGSTROM
AN0001 =    180.00000000 DEGREE
************************************************************************************************************************


 *************************************************************
 * Values of the primitive constraints                       *
 *************************************************************
 BO0001   : Bond Length=  1.600000 / Angstrom  3.023562 / bohr
 BO0002   : Bond Length=  2.200000 / Angstrom  4.157397 / bohr
  Valence angle close to end in range of definition
 AN0001   : Angle=      178.9404   / Degree    3.123099 / rad

 *******************************************
 * Values of the constraints   / au or rad *
 *******************************************
   Label        C         C0
 Cns001      3.023562  3.023562
 Cns002      4.157397  4.157397
 Cns003      3.123099  3.141593

  25  -289.82564000  -289.82668021    -0.00104021  0.06057466  0.07856624  0.01040635  0.36088676  1.11368967  0.01953842    269.92

 Constraints section
ConstraintsConstraintsConstraintsConstraintsConstraintsConstraintsConstraintsConstraintsConstraintsConstraints
ConstraintsConstraintsConstraintsConstraintsConstraintsConstraintsConstraintsConstraintsConstraintsConstraints
Constraints                                                                                        Constraints
Constraints                                 C O N S T R A I N T S                                  Constraints
Constraints                                                                                        Constraints

************************************************************************************************************************
BO0001 = BOND       H10   C5
BO0002 = BOND       H10   C17
AN0001 = ANGLE      C5    H10   C17
VALUES
BO0001 =      1.60000000 ANGSTROM
BO0002 =      2.20000000 ANGSTROM
AN0001 =    180.00000000 DEGREE
************************************************************************************************************************


 *************************************************************
 * Values of the primitive constraints                       *
 *************************************************************
 BO0001   : Bond Length=  1.600000 / Angstrom  3.023562 / bohr
 BO0002   : Bond Length=  2.200000 / Angstrom  4.157397 / bohr
  Valence angle close to end in range of definition
 AN0001   : Angle=      179.9815   / Degree    3.141270 / rad

 *******************************************
 * Values of the constraints   / au or rad *
 *******************************************
   Label        C         C0
 Cns001      3.023562  3.023562
 Cns002      4.157397  4.157397
 Cns003      3.141270  3.141593

  26  -289.82668021  -289.82629975     0.00038047  0.05988153  0.07981941  0.01057234  0.42252283  0.94147651  0.01651713    281.55

 Constraints section
ConstraintsConstraintsConstraintsConstraintsConstraintsConstraintsConstraintsConstraintsConstraintsConstraints
ConstraintsConstraintsConstraintsConstraintsConstraintsConstraintsConstraintsConstraintsConstraintsConstraints
Constraints                                                                                        Constraints
Constraints                                 C O N S T R A I N T S                                  Constraints
Constraints                                                                                        Constraints

************************************************************************************************************************
BO0001 = BOND       H10   C5
BO0002 = BOND       H10   C17
AN0001 = ANGLE      C5    H10   C17
VALUES
BO0001 =      1.60000000 ANGSTROM
BO0002 =      2.20000000 ANGSTROM
AN0001 =    180.00000000 DEGREE
************************************************************************************************************************


 *************************************************************
 * Values of the primitive constraints                       *
 *************************************************************
 BO0001   : Bond Length=  1.600000 / Angstrom  3.023562 / bohr
 BO0002   : Bond Length=  2.200000 / Angstrom  4.157397 / bohr
  Valence angle close to end in range of definition
 AN0001   : Angle=      179.3873   / Degree    3.130900 / rad

 *******************************************
 * Values of the constraints   / au or rad *
 *******************************************
   Label        C         C0
 Cns001      3.023562  3.023562
 Cns002      4.157397  4.157397
 Cns003      3.130900  3.141593

  27  -289.82629975  -289.82658559    -0.00028585  0.05871200  0.07728332  0.01023643  0.06337254  0.17373511  0.00304798    291.48

 Constraints section
ConstraintsConstraintsConstraintsConstraintsConstraintsConstraintsConstraintsConstraintsConstraintsConstraints
ConstraintsConstraintsConstraintsConstraintsConstraintsConstraintsConstraintsConstraintsConstraintsConstraints
Constraints                                                                                        Constraints
Constraints                                 C O N S T R A I N T S                                  Constraints
Constraints                                                                                        Constraints

************************************************************************************************************************
BO0001 = BOND       H10   C5
BO0002 = BOND       H10   C17
AN0001 = ANGLE      C5    H10   C17
VALUES
BO0001 =      1.60000000 ANGSTROM
BO0002 =      2.20000000 ANGSTROM
AN0001 =    180.00000000 DEGREE
************************************************************************************************************************


 *************************************************************
 * Values of the primitive constraints                       *
 *************************************************************
 BO0001   : Bond Length=  1.600000 / Angstrom  3.023562 / bohr
 BO0002   : Bond Length=  2.200000 / Angstrom  4.157397 / bohr
  Valence angle close to end in range of definition
 AN0001   : Angle=      179.8674   / Degree    3.139279 / rad

 *******************************************
 * Values of the constraints   / au or rad *
 *******************************************
   Label        C         C0
 Cns001      3.023562  3.023562
 Cns002      4.157397  4.157397
 Cns003      3.139279  3.141593

  28  -289.82658559  -289.82680810    -0.00022251  0.05917961  0.07754538  0.01027114  0.18596032  0.40016256  0.00702040    302.00

 Constraints section
ConstraintsConstraintsConstraintsConstraintsConstraintsConstraintsConstraintsConstraintsConstraintsConstraints
ConstraintsConstraintsConstraintsConstraintsConstraintsConstraintsConstraintsConstraintsConstraintsConstraints
Constraints                                                                                        Constraints
Constraints                                 C O N S T R A I N T S                                  Constraints
Constraints                                                                                        Constraints

************************************************************************************************************************
BO0001 = BOND       H10   C5
BO0002 = BOND       H10   C17
AN0001 = ANGLE      C5    H10   C17
VALUES
BO0001 =      1.60000000 ANGSTROM
BO0002 =      2.20000000 ANGSTROM
AN0001 =    180.00000000 DEGREE
************************************************************************************************************************


 *************************************************************
 * Values of the primitive constraints                       *
 *************************************************************
 BO0001   : Bond Length=  1.600000 / Angstrom  3.023562 / bohr
 BO0002   : Bond Length=  2.200000 / Angstrom  4.157397 / bohr
  Valence angle close to end in range of definition
 AN0001   : Angle=      179.1417   / Degree    3.126613 / rad

 *******************************************
 * Values of the constraints   / au or rad *
 *******************************************
   Label        C         C0
 Cns001      3.023562  3.023562
 Cns002      4.157397  4.157397
 Cns003      3.126613  3.141593

  29  -289.82680810  -289.82684174    -0.00003364  0.05904180  0.07807320  0.01034105  0.19817856  0.34849998  0.00611403    313.55

 Constraints section
ConstraintsConstraintsConstraintsConstraintsConstraintsConstraintsConstraintsConstraintsConstraintsConstraints
ConstraintsConstraintsConstraintsConstraintsConstraintsConstraintsConstraintsConstraintsConstraintsConstraints
Constraints                                                                                        Constraints
Constraints                                 C O N S T R A I N T S                                  Constraints
Constraints                                                                                        Constraints

************************************************************************************************************************
BO0001 = BOND       H10   C5
BO0002 = BOND       H10   C17
AN0001 = ANGLE      C5    H10   C17
VALUES
BO0001 =      1.60000000 ANGSTROM
BO0002 =      2.20000000 ANGSTROM
AN0001 =    180.00000000 DEGREE
************************************************************************************************************************


 *************************************************************
 * Values of the primitive constraints                       *
 *************************************************************
 BO0001   : Bond Length=  1.600000 / Angstrom  3.023562 / bohr
 BO0002   : Bond Length=  2.200000 / Angstrom  4.157397 / bohr
  Valence angle close to end in range of definition
 AN0001   : Angle=      179.6616   / Degree    3.135687 / rad

 *******************************************
 * Values of the constraints   / au or rad *
 *******************************************
   Label        C         C0
 Cns001      3.023562  3.023562
 Cns002      4.157397  4.157397
 Cns003      3.135687  3.141593

  30  -289.82684174  -289.82684557    -0.00000383  0.05927899  0.07750731  0.01026609  0.20614799  0.61161856  0.01073015    324.68

 Constraints section
ConstraintsConstraintsConstraintsConstraintsConstraintsConstraintsConstraintsConstraintsConstraintsConstraints
ConstraintsConstraintsConstraintsConstraintsConstraintsConstraintsConstraintsConstraintsConstraintsConstraints
Constraints                                                                                        Constraints
Constraints                                 C O N S T R A I N T S                                  Constraints
Constraints                                                                                        Constraints

************************************************************************************************************************
BO0001 = BOND       H10   C5
BO0002 = BOND       H10   C17
AN0001 = ANGLE      C5    H10   C17
VALUES
BO0001 =      1.60000000 ANGSTROM
BO0002 =      2.20000000 ANGSTROM
AN0001 =    180.00000000 DEGREE
************************************************************************************************************************


 *************************************************************
 * Values of the primitive constraints                       *
 *************************************************************
 BO0001   : Bond Length=  1.600000 / Angstrom  3.023562 / bohr
 BO0002   : Bond Length=  2.200000 / Angstrom  4.157397 / bohr
 AN0001   : Angle=      174.7856   / Degree    3.050583 / rad

 *******************************************
 * Values of the constraints   / au or rad *
 *******************************************
   Label        C         C0
 Cns001      3.023562  3.023562
 Cns002      4.157397  4.157397
 Cns003      3.050583  3.141593

  31  -289.82684557  -289.82680237     0.00004321  0.05862827  0.07806560  0.01034004  0.32279399  0.84263378  0.01478305    336.37

 Constraints section
ConstraintsConstraintsConstraintsConstraintsConstraintsConstraintsConstraintsConstraintsConstraintsConstraints
ConstraintsConstraintsConstraintsConstraintsConstraintsConstraintsConstraintsConstraintsConstraintsConstraints
Constraints                                                                                        Constraints
Constraints                                 C O N S T R A I N T S                                  Constraints
Constraints                                                                                        Constraints

************************************************************************************************************************
BO0001 = BOND       H10   C5
BO0002 = BOND       H10   C17
AN0001 = ANGLE      C5    H10   C17
VALUES
BO0001 =      1.60000000 ANGSTROM
BO0002 =      2.20000000 ANGSTROM
AN0001 =    180.00000000 DEGREE
************************************************************************************************************************


 *************************************************************
 * Values of the primitive constraints                       *
 *************************************************************
 BO0001   : Bond Length=  1.600000 / Angstrom  3.023562 / bohr
 BO0002   : Bond Length=  2.200000 / Angstrom  4.157397 / bohr
  Valence angle close to end in range of definition
 AN0001   : Angle=      179.7313   / Degree    3.136904 / rad

 *******************************************
 * Values of the constraints   / au or rad *
[...]
   11      0.257D-05      0.120D-05      -290.17121207    790.594369    0.46324    0.02842    2.26847    9     26.6    325.3
   12      0.174D-05      0.497D-06      -290.17121214    790.594215    0.46341    0.02829    2.26950    9     26.3    351.6
   13      0.527D-06      0.139D-06      -290.17121215    790.594221    0.46345    0.02832    2.26966    9     24.3    375.9
   14      0.180D-06      0.819D-07      -290.17121215    790.594114    0.46347    0.02831    2.26970    9     21.9    397.8

 Final alpha occupancy:  28
 Final beta  occupancy:  27

 !UKS STATE  1.1 Energy              -290.171212149994
 Nuclear energy                       268.41471454
 One-electron energy                 -920.99203229
 Two-electron energy                  395.29705681
 Density functional                   -32.89095120     PBEX=-41.52531151 PBEC= -1.74696757
 Virial quotient                       -1.00667498
 !UKS STATE  1.1 Dipole moment          0.46346555     0.02831028     2.26969579
 Dipole moment /Debye                   1.17793477     0.07195283     5.76861344

 Orbital energies for positive spin:

         1.1          2.1          3.1          4.1          5.1          6.1          7.1          8.1          9.1         10.1
    -14.392334   -10.292417   -10.285176   -10.260367   -10.237377   -10.230246   -10.226625    -0.931725    -0.867631    -0.777506

        11.1         12.1         13.1         14.1         15.1         16.1         17.1         18.1         19.1         20.1
     -0.729043    -0.663596    -0.595713    -0.509229    -0.496237    -0.472407    -0.460606    -0.446144    -0.426746    -0.400619

        21.1         22.1         23.1         24.1         25.1         26.1         27.1         28.1         29.1         30.1
     -0.392596    -0.380694    -0.369752    -0.359234    -0.356873    -0.355452    -0.355246    -0.318075     0.005100     0.023731

 Orbital energies for negative spin:

         1.1          2.1          3.1          4.1          5.1          6.1          7.1          8.1          9.1         10.1
    -14.390318   -10.288234   -10.270477   -10.260276   -10.237260   -10.230166   -10.226632    -0.915870    -0.864517    -0.775981

        11.1         12.1         13.1         14.1         15.1         16.1         17.1         18.1         19.1         20.1
     -0.722008    -0.662390    -0.591080    -0.506005    -0.494343    -0.460482    -0.445518    -0.425372    -0.416845    -0.398649

        21.1         22.1         23.1         24.1         25.1         26.1         27.1         28.1         29.1         30.1
     -0.387754    -0.372311    -0.357931    -0.356331    -0.349186    -0.349055    -0.330941    -0.200947     0.020966     0.030038


 HOMO     28.1    -0.318075 =      -8.6553eV
 LUMO    -28.1    -0.200947 =      -5.4680eV
 LUMO-HOMO         0.117128 =       3.1872eV

 EXPECTATION VALUE OF S**2:             0.77242855

 Occupation number threshold for pseudo-canonical orbitals: 1.9990 (occupied), 0.0010 (virtual)

 Number of pseudo-canonical occupied orbitals per symmetry:   24
 Number of active natural orbitals per symmetry:               7

 Natural orbitals saved to record    2204.2 (Orbital set 3)

 Orbital spaces for UNO-CAS (Min. occupation: 0.020  Max. occupation: 1.980):

 Closed:       27
 Active:        1


 **********************************************************************************************************************************
 DATASETS  * FILE   NREC   LENGTH (MB)   RECORD NAMES
              1      19       35.41       500      610      700      900      950      970     1001      129      960     1100   
                                          VAR    BASINP    GEOM    SYMINP    ZMAT    AOBASIS   BASIS     P2S    ABASIS      S 
                                         1400     1410     1200     1210     1080     1600     1650     1700     1800   
                                           T        V       H0       H01     AOSYM     SMH    MOLCAS    OPER     GRID   

              2      13       28.01       700     1000      520     2100     1800     2200      520(1)  2201      520(2)  2202   
                                         GEOM     BASIS   MCVARS     RHF     GRID      UKS    MCVARS     UKS    MCVARS     UKS  
                                         1001     2203     2204   
                                         BASIS     UKS      UKS  

 PROGRAMS   *        TOTAL    DF-UKS    DF-UKS       INT    DF-UKS      OPTG    DF-UKS      OPTG    DF-UKS     DF-HF       INT
 CPU TIMES  *      2799.71    397.88     14.44      0.23      7.98   1741.22     66.79    552.38      8.82      9.53      0.29
 REAL TIME  *      2815.76 SEC
 DISK USED  *        89.58 MB
 **********************************************************************************************************************************

 Density functional group PBE0=PBEX+PBEC
 Functional: PBEX(Automatically generated (new) PBEX)                          Gradient terms: 1
 Functional: PBEC(Automatically generated (new) PBEC)                          Gradient terms: 1
 Use libxcgrid:  F
 Use grid at  1800.2


 Exact exchange will be calculated, factor:  0.2500

 Functional: PBEX                      Factor:  0.7500
 Functional: PBEC                      Factor:  1.0000

  234265 words reserved for DFT integration

 PROGRAM * UKS-SCF (Unrestricted Kohn-Sham)     Authors: W. Meyer, H.-J. Werner, P.J. Knowles, 1993

 NUMBER OF ELECTRONS:      28+   27-    SPACE SYMMETRY=1    SPIN SYMMETRY: Doublet 
 CONVERGENCE THRESHOLDS:    1.00E-06 (Density)    1.00E-06 (Energy)
 INTEGRAL THRESHOLDS:       1.00E-11 (Initial)    1.00E-11 (Final)
 MAX. NUMBER OF ITERATIONS:       60
 INTERPOLATION TYPE:            DIIS
 INTERPOLATION STEPS:              2 (START)      1 (STEP)
 LEVEL SHIFTS:                 -0.20 (ALPHA)  -0.20 (BETA) 



 Use fine grid record 1800.2 for energy threshold  1.0D-06
 Molecular orbitals read from record     2204.2  Type=UKS/ALPHA (state 1.1)
 Molecular orbitals read from record     2204.2  Type=UKS/BETA (state 1.1)

 Molecular orbital dump at record        2205.2

 Initial alpha occupation  28
 Initial beta  occupation  27

 Direct Fock-matrix evaluation.        Author: H.-J. Werner (1996)

 Integral Threshold:                  0.1D-10

 ITERATION   DDIFF            GRAD            ENERGY        2-EL.EN.            DIPOLE MOMENTS         DIIS   CPU(IT)  CPU(TOT)
    1      0.000D+00      0.000D+00      -290.17095725    790.594623    0.46347    0.02831    2.26970    0     33.8     33.8
    2      0.334D-04      0.737D-05      -290.17095857    790.591251    0.46345    0.02833    2.26968    1     31.9     65.7
    3      0.108D-04      0.129D-05      -290.17095864    790.592211    0.46340    0.02833    2.26959    2     31.0     96.7
    4      0.379D-05      0.231D-06      -290.17095864    790.591914    0.46334    0.02832    2.26943    3     29.7    126.4
    5      0.921D-06      0.102D-06      -290.17095864    790.592302    0.46334    0.02832    2.26942    4     28.2    154.6
    6      0.278D-06      0.746D-07      -290.17095864    790.592272    0.46332    0.02832    2.26934    5     26.8    181.4

 Final alpha occupancy:  28
 Final beta  occupancy:  27

 !UKS STATE  1.1 Energy              -290.170958644790
 Nuclear energy                       268.41471454
 One-electron energy                 -920.99112538
 Two-electron energy                  395.29613585
 Density functional                   -32.89068365     PBEX=-41.52490044 PBEC= -1.74700833
 Virial quotient                       -1.00668597
 !UKS STATE  1.1 Dipole moment          0.46332044     0.02831685     2.26933613
 Dipole moment /Debye                   1.17756596     0.07196955     5.76769932

 Orbital energies for positive spin:

         1.1          2.1          3.1          4.1          5.1          6.1          7.1          8.1          9.1         10.1
    -14.392372   -10.292461   -10.285217   -10.260386   -10.237409   -10.230292   -10.226675    -0.931730    -0.867633    -0.777512

        11.1         12.1         13.1         14.1         15.1         16.1         17.1         18.1         19.1         20.1
     -0.729047    -0.663598    -0.595712    -0.509233    -0.496239    -0.472416    -0.460616    -0.446146    -0.426758    -0.400619

        21.1         22.1         23.1         24.1         25.1         26.1         27.1         28.1         29.1         30.1
     -0.392594    -0.380694    -0.369755    -0.359237    -0.356873    -0.355465    -0.355258    -0.318079     0.005056     0.023693

 Orbital energies for negative spin:

         1.1          2.1          3.1          4.1          5.1          6.1          7.1          8.1          9.1         10.1
    -14.390357   -10.288279   -10.270517   -10.260296   -10.237293   -10.230212   -10.226682    -0.915873    -0.864521    -0.775987

        11.1         12.1         13.1         14.1         15.1         16.1         17.1         18.1         19.1         20.1
     -0.722014    -0.662392    -0.591081    -0.506010    -0.494347    -0.460491    -0.445519    -0.425385    -0.416844    -0.398652

        21.1         22.1         23.1         24.1         25.1         26.1         27.1         28.1         29.1         30.1
     -0.387752    -0.372314    -0.357934    -0.356330    -0.349199    -0.349069    -0.330934    -0.200960     0.020909     0.029994


 HOMO     28.1    -0.318079 =      -8.6554eV
 LUMO    -28.1    -0.200960 =      -5.4684eV
 LUMO-HOMO         0.117119 =       3.1870eV

 EXPECTATION VALUE OF S**2:             0.77242122

 Occupation number threshold for pseudo-canonical orbitals: 1.9990 (occupied), 0.0010 (virtual)

 Number of pseudo-canonical occupied orbitals per symmetry:   24
 Number of active natural orbitals per symmetry:               7

 Natural orbitals saved to record    2205.2 (Orbital set 3)

 Orbital spaces for UNO-CAS (Min. occupation: 0.020  Max. occupation: 1.980):

 Closed:       27
 Active:        1


 **********************************************************************************************************************************
 DATASETS  * FILE   NREC   LENGTH (MB)   RECORD NAMES
              1      19       35.41       500      610      700      900      950      970     1001      129      960     1100   
                                          VAR    BASINP    GEOM    SYMINP    ZMAT    AOBASIS   BASIS     P2S    ABASIS      S 
                                         1400     1410     1200     1210     1080     1600     1650     1700     1800   
                                           T        V       H0       H01     AOSYM     SMH    MOLCAS    OPER     GRID   

              2      14       33.86       700     1000      520     2100     1800     2200      520(1)  2201      520(2)  2202   
                                         GEOM     BASIS   MCVARS     RHF     GRID      UKS    MCVARS     UKS    MCVARS     UKS  
                                         1001     2203     2204     2205   
                                         BASIS     UKS      UKS      UKS  

 PROGRAMS   *        TOTAL   UKS-SCF    DF-UKS    DF-UKS       INT    DF-UKS      OPTG    DF-UKS      OPTG    DF-UKS     DF-HF
 CPU TIMES  *      2981.18    181.47    397.88     14.44      0.23      7.98   1741.22     66.79    552.38      8.82      9.53
 REAL TIME  *      2997.32 SEC
 DISK USED  *        90.51 MB
 **********************************************************************************************************************************

 Density functional group B3LYP=B88+DIRAC+LYP+VWN5
 Functional: B88(Automatically generated (new) B88)                            Gradient terms: 1
 Functional: DIRAC(Automatically generated (new) DIRAC)                        Gradient terms: 0
 Functional: LYP(Automatically generated (new) LYP)                            Gradient terms: 1
 Functional: VWN5(Automatically generated (new) VWN5)                          Gradient terms: 0
 Use libxcgrid:  F
 Use grid at  1800.2


 Exact exchange will be calculated, factor:  0.2000

 Functional: B88                       Factor:  0.7200
 Functional: DIRAC                     Factor:  0.0800
 Functional: LYP                       Factor:  0.8100
 Functional: VWN5                      Factor:  0.1900

  234265 words reserved for DFT integration

 PROGRAM * UKS-SCF (Unrestricted Kohn-Sham)     Authors: W. Meyer, H.-J. Werner, P.J. Knowles, 1993

 NUMBER OF ELECTRONS:      28+   27-    SPACE SYMMETRY=1    SPIN SYMMETRY: Doublet 
 CONVERGENCE THRESHOLDS:    1.00E-06 (Density)    1.00E-06 (Energy)
 INTEGRAL THRESHOLDS:       1.00E-11 (Initial)    1.00E-11 (Final)
 MAX. NUMBER OF ITERATIONS:       60
 INTERPOLATION TYPE:            DIIS
 INTERPOLATION STEPS:              2 (START)      1 (STEP)
 LEVEL SHIFTS:                 -0.20 (ALPHA)  -0.20 (BETA) 



 Use fine grid record 1800.2 for energy threshold  1.0D-06
 Molecular orbitals read from record     2205.2  Type=UKS/ALPHA (state 1.1)
 Molecular orbitals read from record     2205.2  Type=UKS/BETA (state 1.1)

 Molecular orbital dump at record        2206.2

 Initial alpha occupation  28
 Initial beta  occupation  27

 Direct Fock-matrix evaluation.        Author: H.-J. Werner (1996)

 Integral Threshold:                  0.1D-10

 ITERATION   DDIFF            GRAD            ENERGY        2-EL.EN.            DIPOLE MOMENTS         DIIS   CPU(IT)  CPU(TOT)
    1      0.000D+00      0.000D+00      -290.34657446    794.756794    0.46332    0.02832    2.26934    0     34.6     34.6
    2      0.976D-03      0.391D-03      -290.35071552    795.125706    0.47028    0.03171    2.29953    1     33.3     67.9
    3      0.164D-03      0.620D-04      -290.35092585    794.802028    0.46822    0.02860    2.29724    2     32.6    100.5
    4      0.817D-04      0.286D-04      -290.35096402    794.842773    0.47466    0.03199    2.32111    3     32.1    132.6
    5      0.370D-04      0.180D-04      -290.35098017    794.846164    0.47269    0.02951    2.31731    4     31.5    164.1
    6      0.227D-04      0.112D-04      -290.35098904    794.822201    0.47459    0.02963    2.32647    5     31.3    195.4
    7      0.163D-04      0.467D-05      -290.35099473    794.829293    0.47544    0.02894    2.33283    6     31.1    226.6
    8      0.893D-05      0.266D-05      -290.35099714    794.823064    0.47603    0.02832    2.33728    7     30.8    257.3
    9      0.496D-05      0.128D-05      -290.35099769    794.824062    0.47606    0.02800    2.33837    8     30.4    287.8
   10      0.184D-05      0.643D-06      -290.35099778    794.824236    0.47595    0.02798    2.33807    9     29.5    317.2
   11      0.107D-05      0.350D-06      -290.35099781    794.824535    0.47579    0.02794    2.33736    9     28.9    346.2
   12      0.804D-06      0.180D-06      -290.35099782    794.824573    0.47568    0.02798    2.33681    9     28.6    374.8
   13      0.256D-06      0.586D-07      -290.35099783    794.824565    0.47565    0.02795    2.33672    9     27.3    402.1

 Final alpha occupancy:  28
 Final beta  occupancy:  27

 !UKS STATE  1.1 Energy              -290.350997825716
 Nuclear energy                       268.41471454
 One-electron energy                 -921.00345905
 Two-electron energy                  397.41228240
 Density functional                   -35.17453571     B88=-41.79615554 DIRAC=-37.55587137 LYP= -1.75839134 VWN5= -3.43440538
 Virial quotient                       -1.00621341
 !UKS STATE  1.1 Dipole moment          0.47565080     0.02794853     2.33672177
 Dipole moment /Debye                   1.20890456     0.07103342     5.93896532

 Orbital energies for positive spin:

         1.1          2.1          3.1          4.1          5.1          6.1          7.1          8.1          9.1         10.1
    -14.321892   -10.239699   -10.226980   -10.207116   -10.184711   -10.178851   -10.175154    -0.902880    -0.843007    -0.755004

        11.1         12.1         13.1         14.1         15.1         16.1         17.1         18.1         19.1         20.1
     -0.708391    -0.644499    -0.579252    -0.495072    -0.482914    -0.453130    -0.445145    -0.433652    -0.415614    -0.389709

        21.1         22.1         23.1         24.1         25.1         26.1         27.1         28.1         29.1         30.1
     -0.381936    -0.368673    -0.357369    -0.350134    -0.346594    -0.339573    -0.339527    -0.307704    -0.003771     0.016283

 Orbital energies for negative spin:

         1.1          2.1          3.1          4.1          5.1          6.1          7.1          8.1          9.1         10.1
    -14.319495   -10.235977   -10.213869   -10.206985   -10.184602   -10.178777   -10.175159    -0.887633    -0.840152    -0.753634

        11.1         12.1         13.1         14.1         15.1         16.1         17.1         18.1         19.1         20.1
     -0.702283    -0.643417    -0.574980    -0.492168    -0.481123    -0.447239    -0.433095    -0.414349    -0.401776    -0.387979

        21.1         22.1         23.1         24.1         25.1         26.1         27.1         28.1         29.1         30.1
     -0.377740    -0.361962    -0.349000    -0.346503    -0.333221    -0.333057    -0.322698    -0.208109     0.011236     0.020530


 HOMO     28.1    -0.307704 =      -8.3731eV
 LUMO    -28.1    -0.208109 =      -5.6629eV
 LUMO-HOMO         0.099595 =       2.7101eV

 EXPECTATION VALUE OF S**2:             0.76564138

 Occupation number threshold for pseudo-canonical orbitals: 1.9990 (occupied), 0.0010 (virtual)

 Number of pseudo-canonical occupied orbitals per symmetry:   24
 Number of active natural orbitals per symmetry:               7

 Natural orbitals saved to record    2206.2 (Orbital set 3)

 Orbital spaces for UNO-CAS (Min. occupation: 0.020  Max. occupation: 1.980):

 Closed:       27
 Active:        1


 **********************************************************************************************************************************
 DATASETS  * FILE   NREC   LENGTH (MB)   RECORD NAMES
              1      19       35.41       500      610      700      900      950      970     1001      129      960     1100   
                                          VAR    BASINP    GEOM    SYMINP    ZMAT    AOBASIS   BASIS     P2S    ABASIS      S 
                                         1400     1410     1200     1210     1080     1600     1650     1700     1800   
                                           T        V       H0       H01     AOSYM     SMH    MOLCAS    OPER     GRID   

              2      15       39.72       700     1000      520     2100     1800     2200      520(1)  2201      520(2)  2202   
                                         GEOM     BASIS   MCVARS     RHF     GRID      UKS    MCVARS     UKS    MCVARS     UKS  
                                         1001     2203     2204     2205     2206   
                                         BASIS     UKS      UKS      UKS      UKS  

 PROGRAMS   *        TOTAL   UKS-SCF   UKS-SCF    DF-UKS    DF-UKS       INT    DF-UKS      OPTG    DF-UKS      OPTG    DF-UKS
 CPU TIMES  *      3383.37    402.19    181.47    397.88     14.44      0.23      7.98   1741.22     66.79    552.38      8.82
 REAL TIME  *      3399.95 SEC
 DISK USED  *        99.72 MB
 **********************************************************************************************************************************

 UB3LYP/TZVP//CF-UKS/SVP energy=   -290.350997825716

         UKS-SCF         UKS-SCF          DF-UKS          DF-UKS          DF-UKS    OPTG(DF-UKS)          DF-UKS    OPTG(DF-UKS)
   -290.35099783   -290.17095864   -290.17121215   -290.14756955   -289.82591440   -289.85635176   -289.85520778   -289.82703022
 **********************************************************************************************************************************
 Molpro calculation terminated with 2 warning(s)
