
 Primary working directories    : /mnt/storage/home/lb17101/scratch/1377737/molpro.bSBXL74ptE
 Secondary working directories  : /mnt/storage/home/lb17101/scratch/1377737/molpro.bSBXL74ptE
 Wavefunction directory         : /mnt/storage/home/lb17101/optimizations/11/
 Main file repository           : /mnt/storage/home/lb17101/optimizations/11/

 id        : simonbennie

 Nodes                   nprocs
 compute068.bc4.acrc.priv    1

 Using customized tuning parameters: mindgm=1; mindgv=20; mindgc=4; mindgr=1; noblas=0; minvec=7
 default implementation of scratch files=df  


 Variables initialized (924), CPU time= 0.00 sec
 memory,536,m
 
 geomtyp=xyz
 
 nosym
 noorient
 gdirect
 angstrom
 
 geometry=input.xyz
 Including file /mnt/storage/home/lb17101/optimizations/11/input.xyz
 
 set,charge=0
 
 basis=svp
 df-hf
 {cf-uks,pbe;}
 {optg,method=slrf,maxiter=50;
 constraint,1.000,angstrom,bond,atoms=[H11,C6]
 constraint,3.000,angstrom,bond,atoms=[H11,C17]
 constraint,180,deg,angle,atoms=[C6,H11,C17]
 {slopt;}}
 {cf-uks,pbe0;}
 {optg,method=slrf,maxiter=20;
 constraint,1.000,angstrom,bond,atoms=[H11,C6]
 constraint,3.000,angstrom,bond,atoms=[H11,C17]
 constraint,180,deg,angle,atoms=[C6,H11,C17]
 {slopt;}}
 {cf-uks,pbe;}
 basis=tzvp
 {cf-uks,pbe;}
 {cf-uks,pbe0;}
 {uks,pbe0;}
 {uks,b3lyp;}
 Commands  initialized (760), CPU time= 0.01 sec, 616 directives.
 Default parameters read. Elapsed time= 0.04 sec

 Checking input...
 Passed
1


                                         ***  PROGRAM SYSTEM MOLPRO  ***
                                       Copyright, TTI GmbH Stuttgart, 2015
                                    Version 2018.1 linked Oct 16 2018 14:32:03


 **********************************************************************************************************************************
 LABEL *                                                                                 
  64 bit serial version                                                                  DATE: 09-Nov-18          TIME: 15:58:54  
 **********************************************************************************************************************************

 SHA1:             d673ad554fd0a1ae99daa449513f8b88cca0f763
 **********************************************************************************************************************************
 SETTING GEOMTYP        =    XYZ

 Variable memory set to  536000000 words,  buffer space 

 ZSYMEL=NOSYM
 ZUNIT=ANG

 SETTING CHARGE         =     0.00000000D+00                                  
 SETTING BASIS          =    SVP


 Recomputing integrals since basis changed


 Using spherical harmonics

 Library entry C      S def2-SVP             selected for orbital group  1
 Library entry C      P def2-SVP             selected for orbital group  1
 Library entry C      D def2-SVP             selected for orbital group  1
 Library entry H      S def2-SVP             selected for orbital group  2
 Library entry H      P def2-SVP             selected for orbital group  2
 Library entry N      S def2-SVP             selected for orbital group  8
 Library entry N      P def2-SVP             selected for orbital group  8
 Library entry N      D def2-SVP             selected for orbital group  8


 PROGRAM * SEWARD (Integral evaluation for generally contracted gaussian basis sets)     Author: Roland Lindh, 1990

 Geometry written to block  1 of record 700


 Point group  C1  



 ATOMIC COORDINATES

 NR  ATOM    CHARGE       X              Y              Z

   1  C0      6.00  -15.623034457    4.456181068   -0.744963817
   2  C1      6.00  -12.754161497    4.471148812   -0.270646497
   3  H2      1.00  -16.050724045    4.674077832   -2.791508804
   4  H3      1.00  -16.572723553    6.025924871    0.266890858
   5  H4      1.00  -16.494424527    2.659733771   -0.105170181
   6  C5      6.00  -11.570266300    7.002201743   -1.086802570
   7  C6      6.00  -11.492126434    2.196457185   -1.416610084
   8  H7      1.00  -12.474168993    4.333386856    1.830631913
   9  H8      1.00  -11.763135953    7.285372778   -3.155238719
  10  H9      1.00   -9.533873707    7.111716548   -0.612814725
  11  H10     1.00  -12.520738188    8.609141184   -0.135413196
  12  H11     1.00  -13.007317023    2.744903906   -6.851534638
  13  H12     1.00  -12.665161079    0.480079678   -1.598889749
  14  C13     6.00   -8.691617909    1.890885500   -1.553555080
  15  H14     1.00   -7.738367918    3.530069106   -2.457983525
  16  H15     1.00   -8.137223237    0.166611698   -2.602303197
  17  H16     1.00   -7.827415309    1.731359762    0.371967837
  18  C17     6.00  -13.531628172    3.097804943   -8.831810575
  19  N18     7.00  -14.089116397    3.480071945  -10.933086168

 Bond lengths in Bohr (Angstrom)

 1-2  2.907857117  1-3  2.102080819  1-4  2.095198050  1-5  2.096635267  2-6  2.911004554
     ( 1.538771719)     ( 1.112373265)     ( 1.108731061)     ( 1.109491603)     ( 1.540437271)

  2- 7  2.842566981   2- 8  2.124322271   6- 9  2.096619336   6-10  2.093693570   6-11  2.095421895
       ( 1.504221667)       ( 1.124142935)       ( 1.109483172)       ( 1.107934924)       ( 1.108849514)

  7-13  2.086908695   7-14  2.820456698  12-18  2.078685669  14-15  2.100856790  14-16  2.092927664
       ( 1.104344523)       ( 1.492521409)       ( 1.099993085)       ( 1.111725537)       ( 1.107529624)

 14-17  2.116585245  18-19  2.207324240
       ( 1.120048677)       ( 1.168065685)

 Bond angles

  1-2-6  111.09939358   1-2-7  111.60137794   1-2-8  106.92075244   2-1-3  111.03911382

  2- 1- 4  111.38057269   2- 1- 5  111.38769550   2- 6- 9  110.89278884   2- 6-10  112.18344479

  2- 6-11  110.79429451   2- 7-13  116.34663244   2- 7-14  123.16888649   3- 1- 4  107.47545775

  3-1-5  107.53847579   4-1-5  107.82953177   6-2-7  113.71478466   6-2-8  106.26673734

  7- 2- 8  106.75971964   7-14-15  112.76201543   7-14-16  112.12347607   7-14-17  111.67904931

  9- 6-10  107.80351523   9- 6-11  107.61546168  10- 6-11  107.35429488  12-18-19  179.79963244

 13- 7-14  117.69536096  15-14-16  107.87231350  15-14-17  105.37802152  16-14-17  106.59532687

 NUCLEAR CHARGE:                   55
 NUMBER OF PRIMITIVE AOS:         259
 NUMBER OF SYMMETRY AOS:          252
 NUMBER OF CONTRACTIONS:          158   (  158A   )
 NUMBER OF CORE ORBITALS:           7   (    7A   )
 NUMBER OF VALENCE ORBITALS:       40   (   40A   )


 NUCLEAR REPULSION ENERGY  266.36079263


 Eigenvalues of metric

         1 0.186E-02 0.367E-02 0.455E-02 0.556E-02 0.740E-02 0.190E-01 0.201E-01 0.227E-01


 OPERATOR DM      FOR CENTER  0  COORDINATES:    0.000000    0.000000    0.000000


 **********************************************************************************************************************************
 DATASETS  * FILE   NREC   LENGTH (MB)   RECORD NAMES
              1      18       31.21       500      610      700      900      950      970     1000      129      960     1100   
                                          VAR    BASINP    GEOM    SYMINP    ZMAT    AOBASIS   BASIS     P2S    ABASIS      S 
                                         1400     1410     1200     1210     1080     1600     1650     1700   
                                           T        V       H0       H01     AOSYM     SMH    MOLCAS    OPER   

 PROGRAMS   *        TOTAL       INT
 CPU TIMES  *         0.42      0.29
 REAL TIME  *         0.70 SEC
 DISK USED  *        31.83 MB
 **********************************************************************************************************************************


 PROGRAM * RHF-SCF (OPEN SHELL)       Authors: W. Meyer, H.-J. Werner


 NUMBER OF ELECTRONS:      28+   27-    SPACE SYMMETRY=1    SPIN SYMMETRY: Doublet 
 CONVERGENCE THRESHOLDS:    1.00E-06 (Density)    1.00E-07 (Energy)
 INTEGRAL THRESHOLDS:       1.00E-11 (Initial)    1.00E-11 (Final)
 MAX. NUMBER OF ITERATIONS:       60
 INTERPOLATION TYPE:            DIIS
 INTERPOLATION STEPS:              2 (START)      1 (STEP)
 LEVEL SHIFTS:                 -0.60 (CLOSED) -0.30 (OPEN) 




 Basis set DEF2-SVP/JKFIT generated.     Number of basis functions:   560 

 Orbital guess generated from atomic densities. Full valence occupancy:   28
 Using density fitting in orbital guess

 Coulomb and exchange fitting
 Thresholds for fitting:       THRAO_COUL= 1.0D-14    THRAO_EXCH= 1.0D-12    THRMO= 1.0D-11    THRPROD= 1.0D-11    THRASM= 1.0D-11
                               THR2HLF=    1.0D-11

 Molecular orbital dump at record        2100.2

 Initial alpha occupancy:  28
 Initial beta  occupancy:  27
 Wave function symmetry:    1

 ITERATION   DDIFF            GRAD            ENERGY        2-EL.EN.            DIPOLE MOMENTS         DIIS   CPU(IT)  CPU(TOT)  ORB.
    1      0.000D+00      0.000D+00      -288.25515683    724.827716    0.67741   -0.23183    2.05219    0      0.7      1.5     start
    2      0.000D+00      0.406D-02      -288.33519995    721.922907    0.46565   -0.17005    1.54480    1      0.7      2.1     diag,B
    3      0.309D-02      0.158D-02      -288.35112100    722.030083    0.44885   -0.19605    1.57807    2      0.7      2.8     diag,B
    4      0.154D-02      0.759D-03      -288.35755801    721.990573    0.41407   -0.19475    1.51512    3      0.7      3.5     diag,B
    5      0.137D-02      0.213D-03      -288.35821314    721.956796    0.40924   -0.19627    1.50450    4      0.7      4.1     diag,B
    6      0.557D-03      0.747D-04      -288.35830788    721.929508    0.40777   -0.19595    1.49795    5      0.7      4.8     diag,B
    7      0.256D-03      0.223D-04      -288.35831674    721.921956    0.40736   -0.19545    1.49531    6      0.7      5.5     fixocc
    8      0.755D-04      0.734D-05      -288.35831791    721.921394    0.40711   -0.19509    1.49409    7      0.6      6.1     diag,B
    9      0.289D-04      0.264D-05      -288.35831809    721.921643    0.40702   -0.19494    1.49373    8      0.7      6.8     diag,B
   10      0.135D-04      0.845D-06      -288.35831811    721.921787    0.40701   -0.19490    1.49369    9      0.7      7.4     orth
   11      0.451D-05      0.308D-06      -288.35831812    721.921789    0.40701   -0.19489    1.49370    9      0.7      8.1     diag,B
   12      0.165D-05      0.106D-06      -288.35831812    721.921778    0.40701   -0.19489    1.49371    9      0.7      8.8     diag,B
   13      0.556D-06      0.365D-07      -288.35831812    721.921773    0.40701   -0.19489    1.49371    0      0.7      9.4     orth

 Final alpha occupancy:  28
 Final beta  occupancy:  27

 !RHF STATE  1.1 Energy              -288.358318116309
 Nuclear energy                       266.36079263
 One-electron energy                 -915.67999731
 Two-electron energy                  360.96088657
 Virial quotient                       -1.00689617
 !RHF STATE  1.1 Dipole moment          0.40700983    -0.19488966     1.49370591
 Dipole moment /Debye                   1.03444804    -0.49532765     3.79637307

 Orbital energies:

         1.1          2.1          3.1          4.1          5.1          6.1          7.1          8.1          9.1         10.1
    -15.598835   -11.299230   -11.247100   -11.242892   -11.238344   -11.236433   -11.235547    -1.211249    -1.086418    -0.990694

        11.1         12.1         13.1         14.1         15.1         16.1         17.1         18.1         19.1         20.1
     -0.926015    -0.848804    -0.786408    -0.740048    -0.636462    -0.618646    -0.596091    -0.571540    -0.562510    -0.548054

        21.1         22.1         23.1         24.1         25.1         26.1         27.1         28.1         29.1         30.1
     -0.539342    -0.524043    -0.487885    -0.486673    -0.485850    -0.480671    -0.474620    -0.357411     0.150175     0.166889


 HOMO     28.1    -0.357411 =      -9.7256eV
 LUMO     29.1     0.150175 =       4.0865eV
 LUMO-HOMO         0.507586 =      13.8121eV


 **********************************************************************************************************************************
 DATASETS  * FILE   NREC   LENGTH (MB)   RECORD NAMES
              1      18       31.21       500      610      700      900      950      970     1000      129      960     1100   
                                          VAR    BASINP    GEOM    SYMINP    ZMAT    AOBASIS   BASIS     P2S    ABASIS      S 
                                         1400     1410     1200     1210     1080     1600     1650     1700   
                                           T        V       H0       H01     AOSYM     SMH    MOLCAS    OPER   

              2       4        3.88       700     1000      520     2100   
                                         GEOM     BASIS   MCVARS     RHF  

 PROGRAMS   *        TOTAL     DF-HF       INT
 CPU TIMES  *         9.84      9.42      0.29
 REAL TIME  *        10.97 SEC
 DISK USED  *        68.27 MB
 **********************************************************************************************************************************

 Density functional group PBE=PBEX+PBEC
 Functional: PBEX(Automatically generated (new) PBEX)                          Gradient terms: 1
 Functional: PBEC(Automatically generated (new) PBEC)                          Gradient terms: 1
 Use libxcgrid:  F
 Use grid at  1800.2

 Functional: PBEX                      Factor:  1.0000
 Functional: PBEC                      Factor:  1.0000

 Generated new metagrid on record  1800.2 with target accuracy 1.0D-06 and 63368 points in CPU time    1.2
 Computed new grid on record 1800.1 in CPU time    1.3
  129907 words reserved for DFT integration

 PROGRAM * UKS-SCF (Unrestricted Kohn-Sham)     Authors: W. Meyer, H.-J. Werner, P.J. Knowles, 1993

 NUMBER OF ELECTRONS:      28+   27-    SPACE SYMMETRY=1    SPIN SYMMETRY: Doublet 
 CONVERGENCE THRESHOLDS:    1.00E-06 (Density)    1.00E-06 (Energy)
 INTEGRAL THRESHOLDS:       1.00E-11 (Initial)    1.00E-11 (Final)
 MAX. NUMBER OF ITERATIONS:       60
 INTERPOLATION TYPE:            DIIS
 INTERPOLATION STEPS:              2 (START)      1 (STEP)
 LEVEL SHIFTS:                 -0.20 (ALPHA)  -0.20 (BETA) 



 Use fine grid record 1800.2 for energy threshold  1.0D-06

 Basis set DEF2-SVP/JFIT generated.      Number of basis functions:   475 
 Coulomb fitting
 Screening thresholds:    THRAO_COUL= 1.0D-14    THRAO= 1.0D-12    THROV= 1.0D-12

 Reserved 6 MW to cache 100.0% of significant integrals. CPU: 0.3 sec

 Molecular orbitals read from record     2100.2  Type=RHF/CANONICAL (state 1.1)

 Molecular orbital dump at record        2200.2

 Initial alpha occupation  28
 Initial beta  occupation  27

 ITERATION    DDIFF          GRAD             ENERGY        2-EL.EN.            DIPOLE MOMENTS         DIIS  CPU(IT) CPU(TOT)
    1      0.000D+00      0.000D+00      -289.86338031    805.399339    0.40701   -0.19489    1.49371    0      0.5      0.8
    2      0.410D-02      0.216D-02      -289.90464828    808.460075    0.39267   -0.15660    1.39652    1      0.5      1.4
    3      0.138D-02      0.440D-03      -289.90832009    807.092031    0.39515   -0.15013    1.37627    2      0.5      1.9
    4      0.736D-03      0.193D-03      -289.90928625    807.607657    0.39620   -0.14593    1.35977    3      0.5      2.4
    5      0.317D-03      0.799D-04      -289.90941664    807.540764    0.41065   -0.15123    1.40292    4      0.5      2.9
    6      0.139D-03      0.852D-04      -289.90951198    807.475276    0.40415   -0.14524    1.37617    5      0.5      3.4
    7      0.877D-04      0.210D-04      -289.90952764    807.487587    0.40677   -0.14716    1.38437    6      0.5      4.0
    8      0.322D-04      0.767D-05      -289.90952980    807.489113    0.40708   -0.14633    1.38485    7      0.5      4.5
    9      0.137D-04      0.280D-05      -289.90953007    807.489415    0.40728   -0.14652    1.38516    8      0.5      5.0
   10      0.587D-05      0.126D-05      -289.90953012    807.488575    0.40728   -0.14649    1.38546    8      0.5      5.5
   11      0.209D-05      0.288D-06      -289.90953013    807.488592    0.40730   -0.14650    1.38548    8      0.5      6.0
   12      0.548D-06      0.101D-06      -289.90953013    807.488657    0.40729   -0.14651    1.38548    8      0.5      6.6
   13      0.246D-06      0.576D-07      -289.90953013    807.488604    0.40729   -0.14650    1.38548    7      0.5      7.1

 Final alpha occupancy:  28
 Final beta  occupancy:  27

 !UKS STATE  1.1 Energy              -289.909530127504
 Nuclear energy                       266.36079263
 One-electron energy                 -916.74881357
 Two-electron energy                  403.74430205
 Density functional                   -43.26581123     PBEX=-41.50719124 PBEC= -1.75861999
 Virial quotient                       -1.01213296
 !UKS STATE  1.1 Dipole moment          0.40729348    -0.14650224     1.38548143
 Dipole moment /Debye                   1.03516897    -0.37234717     3.52131190

 Orbital energies for positive spin:

         1.1          2.1          3.1          4.1          5.1          6.1          7.1          8.1          9.1         10.1
    -14.008857    -9.945506    -9.916599    -9.916383    -9.906908    -9.899206    -9.898927    -0.818171    -0.739444    -0.668274

        11.1         12.1         13.1         14.1         15.1         16.1         17.1         18.1         19.1         20.1
     -0.615751    -0.564916    -0.528204    -0.490481    -0.422246    -0.407436    -0.390805    -0.370654    -0.349641    -0.341960

        21.1         22.1         23.1         24.1         25.1         26.1         27.1         28.1         29.1         30.1
     -0.329817    -0.316695    -0.315015    -0.314832    -0.306718    -0.300985    -0.295007    -0.166837    -0.022049    -0.019550

 Orbital energies for negative spin:

         1.1          2.1          3.1          4.1          5.1          6.1          7.1          8.1          9.1         10.1
    -14.008855    -9.945347    -9.917068    -9.907631    -9.903915    -9.898794    -9.898759    -0.818097    -0.731702    -0.661270

        11.1         12.1         13.1         14.1         15.1         16.1         17.1         18.1         19.1         20.1
     -0.614885    -0.556877    -0.527454    -0.480492    -0.416740    -0.404752    -0.386556    -0.362132    -0.348957    -0.340894

        21.1         22.1         23.1         24.1         25.1         26.1         27.1         28.1         29.1         30.1
     -0.326922    -0.316607    -0.314891    -0.314738    -0.303315    -0.298871    -0.290429    -0.095617    -0.021851    -0.019360


 HOMO     28.1    -0.166837 =      -4.5399eV
 LUMO    -28.1    -0.095617 =      -2.6019eV
 LUMO-HOMO         0.071221 =       1.9380eV

 EXPECTATION VALUE OF S**2:             0.75333059

 Occupation number threshold for pseudo-canonical orbitals: 1.9990 (occupied), 0.0010 (virtual)

 Number of pseudo-canonical occupied orbitals per symmetry:   27
 Number of active natural orbitals per symmetry:               1

 Natural orbitals saved to record    2200.2 (Orbital set 3)

 Orbital spaces for UNO-CAS (Min. occupation: 0.020  Max. occupation: 1.980):

 Closed:       27
 Active:        1


 **********************************************************************************************************************************
 DATASETS  * FILE   NREC   LENGTH (MB)   RECORD NAMES
              1      19       33.24       500      610      700      900      950      970     1000      129      960     1100   
                                          VAR    BASINP    GEOM    SYMINP    ZMAT    AOBASIS   BASIS     P2S    ABASIS      S 
                                         1400     1410     1200     1210     1080     1600     1650     1700     1800   
                                           T        V       H0       H01     AOSYM     SMH    MOLCAS    OPER     GRID   

              2       6        7.61       700     1000      520     2100     1800     2200   
                                         GEOM     BASIS   MCVARS     RHF     GRID      UKS  

 PROGRAMS   *        TOTAL    DF-UKS     DF-HF       INT
 CPU TIMES  *        18.31      8.47      9.42      0.29
 REAL TIME  *        19.55 SEC
 DISK USED  *        68.27 MB
 **********************************************************************************************************************************


 PROGRAM * OPT (Geometry optimization)     Authors: F. Eckert and H.-J. Werner


 BFGS update of hessian


********** USER DEFINED INT/FIX/CONSTRAINTS ****************

List of primitive internal coordinates

     N      Name     Type   Natoms   Atom list

     1    Bo0001     Bond        2      H11  C6  
     2    Bo0002     Bond        2      H11  C17 
     3    An0001     Angle       3      C6   H11  C17 

List of user defined internal/fixed coordinates and constraints

- - - - - - - - - - - - - - - - - - - - - - - - - - - - - - - - - 
    N      Name   Type      Pname     Coeff       Value   Unit
- - - - - - - - - - - - - - - - - - - - - - - - - - - - - - - - - 
    1    Cns001    Con     Bo0001     1.000     1.00000 Angstrom
- - - - - - - - - - - - - - - - - - - - - - - - - - - - - - - - - 
    2    Cns002    Con     Bo0002     1.000     3.00000 Angstrom
- - - - - - - - - - - - - - - - - - - - - - - - - - - - - - - - - 
    3    Cns003    Con     An0001     1.000   180.00000   Degree
- - - - - - - - - - - - - - - - - - - - - - - - - - - - - - - - - 


******************************************************************



 *** Long output written to logfile /mnt/storage/home/lb17101/optimizations/11/11_1.00_3.00.log ***


 Geometry optimization using default procedure for command CF-UKS-SCF

 Geometry written to block  1 of record 700

 SLAPAF optimizer by R. Lindh and Ignacio F. Galvan entered

 Constraints section
ConstraintsConstraintsConstraintsConstraintsConstraintsConstraintsConstraintsConstraintsConstraintsConstraints
ConstraintsConstraintsConstraintsConstraintsConstraintsConstraintsConstraintsConstraintsConstraintsConstraints
Constraints                                                                                        Constraints
Constraints                                 C O N S T R A I N T S                                  Constraints
Constraints                                                                                        Constraints

************************************************************************************************************************
BO0001 = BOND       H11   C6
BO0002 = BOND       H11   C17
AN0001 = ANGLE      C6    H11   C17
VALUES
BO0001 =      1.00000000 ANGSTROM
BO0002 =      3.00000000 ANGSTROM
AN0001 =    180.00000000 DEGREE
************************************************************************************************************************


 *************************************************************
 * Values of the primitive constraints                       *
 *************************************************************
 BO0001   : Bond Length=  2.999786 / Angstrom  5.668774 / bohr
 BO0002   : Bond Length=  1.099993 / Angstrom  2.078686 / bohr
 AN0001   : Angle=      175.7129   / Degree    3.066769 / rad

 *******************************************
 * Values of the constraints   / au or rad *
 *******************************************
   Label        C         C0
 Cns001      5.668774  1.889726
 Cns002      2.078686  5.669178
 Cns003      3.066769  3.141593


 ITER.   ENERGY(OLD)    ENERGY(NEW)      DE          GRADMAX     GRADNORM    GRADRMS     STEPMAX     STEPLEN     STEPRMS   CPU-time
   1  -289.90953013  -289.90952879     0.00000134  0.00531371  0.00802366  0.00106276  0.04990691  0.10635338  0.00186585      8.02

 Constraints section
ConstraintsConstraintsConstraintsConstraintsConstraintsConstraintsConstraintsConstraintsConstraintsConstraints
ConstraintsConstraintsConstraintsConstraintsConstraintsConstraintsConstraintsConstraintsConstraintsConstraints
Constraints                                                                                        Constraints
Constraints                                 C O N S T R A I N T S                                  Constraints
Constraints                                                                                        Constraints

************************************************************************************************************************
BO0001 = BOND       H11   C6
BO0002 = BOND       H11   C17
AN0001 = ANGLE      C6    H11   C17
VALUES
BO0001 =      1.00000000 ANGSTROM
BO0002 =      3.00000000 ANGSTROM
AN0001 =    180.00000000 DEGREE
************************************************************************************************************************


 *************************************************************
 * Values of the primitive constraints                       *
 *************************************************************
 BO0001   : Bond Length=  2.999268 / Angstrom  5.667795 / bohr
 BO0002   : Bond Length=  1.100485 / Angstrom  2.079616 / bohr
 AN0001   : Angle=      175.7141   / Degree    3.066789 / rad

 *******************************************
 * Values of the constraints   / au or rad *
 *******************************************
   Label        C         C0
 Cns001      5.667795  1.889726
 Cns002      2.079616  5.669178
 Cns003      3.066789  3.141593

   2  -289.90952879  -289.90925467     0.00027412  0.00572286  0.00859085  0.00113789  0.29487637  0.62590470  0.01098078     16.94

 Constraints section
ConstraintsConstraintsConstraintsConstraintsConstraintsConstraintsConstraintsConstraintsConstraintsConstraints
ConstraintsConstraintsConstraintsConstraintsConstraintsConstraintsConstraintsConstraintsConstraintsConstraints
Constraints                                                                                        Constraints
Constraints                                 C O N S T R A I N T S                                  Constraints
Constraints                                                                                        Constraints

************************************************************************************************************************
BO0001 = BOND       H11   C6
BO0002 = BOND       H11   C17
AN0001 = ANGLE      C6    H11   C17
VALUES
BO0001 =      1.00000000 ANGSTROM
BO0002 =      3.00000000 ANGSTROM
AN0001 =    180.00000000 DEGREE
************************************************************************************************************************


 *************************************************************
 * Values of the primitive constraints                       *
 *************************************************************
 BO0001   : Bond Length=  2.994214 / Angstrom  5.658244 / bohr
 BO0002   : Bond Length=  1.105285 / Angstrom  2.088685 / bohr
 AN0001   : Angle=      175.7262   / Degree    3.067000 / rad

 *******************************************
 * Values of the constraints   / au or rad *
 *******************************************
   Label        C         C0
 Cns001      5.658244  1.889726
 Cns002      2.088685  5.669178
 Cns003      3.067000  3.141593

   3  -289.90925467  -289.90890718     0.00034749  0.01002581  0.01462145  0.00193666  0.14695003  0.31290277  0.00548952     25.91

 Constraints section
ConstraintsConstraintsConstraintsConstraintsConstraintsConstraintsConstraintsConstraintsConstraintsConstraints
ConstraintsConstraintsConstraintsConstraintsConstraintsConstraintsConstraintsConstraintsConstraintsConstraints
Constraints                                                                                        Constraints
Constraints                                 C O N S T R A I N T S                                  Constraints
Constraints                                                                                        Constraints

************************************************************************************************************************
BO0001 = BOND       H11   C6
BO0002 = BOND       H11   C17
AN0001 = ANGLE      C6    H11   C17
VALUES
BO0001 =      1.00000000 ANGSTROM
BO0002 =      3.00000000 ANGSTROM
AN0001 =    180.00000000 DEGREE
************************************************************************************************************************


 *************************************************************
 * Values of the primitive constraints                       *
 *************************************************************
 BO0001   : Bond Length=  2.987264 / Angstrom  5.645110 / bohr
 BO0002   : Bond Length=  1.111888 / Angstrom  2.101164 / bohr
 AN0001   : Angle=      175.7417   / Degree    3.067271 / rad

 *******************************************
 * Values of the constraints   / au or rad *
 *******************************************
   Label        C         C0
 Cns001      5.645110  1.889726
 Cns002      2.101164  5.669178
 Cns003      3.067271  3.141593

   4  -289.90890718  -289.90854539     0.00036179  0.01469106  0.02114903  0.00280126  0.10429783  0.22612542  0.00396711     34.88

 Constraints section
ConstraintsConstraintsConstraintsConstraintsConstraintsConstraintsConstraintsConstraintsConstraintsConstraints
ConstraintsConstraintsConstraintsConstraintsConstraintsConstraintsConstraintsConstraintsConstraintsConstraints
Constraints                                                                                        Constraints
Constraints                                 C O N S T R A I N T S                                  Constraints
Constraints                                                                                        Constraints

************************************************************************************************************************
BO0001 = BOND       H11   C6
BO0002 = BOND       H11   C17
AN0001 = ANGLE      C6    H11   C17
VALUES
BO0001 =      1.00000000 ANGSTROM
BO0002 =      3.00000000 ANGSTROM
AN0001 =    180.00000000 DEGREE
************************************************************************************************************************


 *************************************************************
 * Values of the primitive constraints                       *
 *************************************************************
 BO0001   : Bond Length=  2.981984 / Angstrom  5.635133 / bohr
 BO0002   : Bond Length=  1.116905 / Angstrom  2.110645 / bohr
 AN0001   : Angle=      175.7533   / Degree    3.067474 / rad

 *******************************************
 * Values of the constraints   / au or rad *
 *******************************************
   Label        C         C0
 Cns001      5.635133  1.889726
 Cns002      2.110645  5.669178
 Cns003      3.067474  3.141593

   5  -289.90854539  -289.90798480     0.00056059  0.01755633  0.02556129  0.00338568  0.14692753  0.31886926  0.00559420     43.80

 Constraints section
ConstraintsConstraintsConstraintsConstraintsConstraintsConstraintsConstraintsConstraintsConstraintsConstraints
ConstraintsConstraintsConstraintsConstraintsConstraintsConstraintsConstraintsConstraintsConstraintsConstraints
Constraints                                                                                        Constraints
Constraints                                 C O N S T R A I N T S                                  Constraints
Constraints                                                                                        Constraints

************************************************************************************************************************
BO0001 = BOND       H11   C6
BO0002 = BOND       H11   C17
AN0001 = ANGLE      C6    H11   C17
VALUES
BO0001 =      1.00000000 ANGSTROM
BO0002 =      3.00000000 ANGSTROM
AN0001 =    180.00000000 DEGREE
************************************************************************************************************************


 *************************************************************
 * Values of the primitive constraints                       *
 *************************************************************
 BO0001   : Bond Length=  2.976057 / Angstrom  5.623933 / bohr
 BO0002   : Bond Length=  1.122536 / Angstrom  2.121286 / bohr
 AN0001   : Angle=      175.7666   / Degree    3.067707 / rad

 *******************************************
 * Values of the constraints   / au or rad *
 *******************************************
   Label        C         C0
 Cns001      5.623933  1.889726
 Cns002      2.121286  5.669178
 Cns003      3.067707  3.141593

   6  -289.90798480  -289.90739483     0.00058997  0.02084316  0.03052978  0.00404377  0.14051999  0.31023695  0.00544275     52.62

 Constraints section
ConstraintsConstraintsConstraintsConstraintsConstraintsConstraintsConstraintsConstraintsConstraintsConstraints
ConstraintsConstraintsConstraintsConstraintsConstraintsConstraintsConstraintsConstraintsConstraintsConstraints
Constraints                                                                                        Constraints
Constraints                                 C O N S T R A I N T S                                  Constraints
Constraints                                                                                        Constraints

************************************************************************************************************************
BO0001 = BOND       H11   C6
BO0002 = BOND       H11   C17
AN0001 = ANGLE      C6    H11   C17
VALUES
BO0001 =      1.00000000 ANGSTROM
BO0002 =      3.00000000 ANGSTROM
AN0001 =    180.00000000 DEGREE
************************************************************************************************************************


 *************************************************************
 * Values of the primitive constraints                       *
 *************************************************************
 BO0001   : Bond Length=  2.970042 / Angstrom  5.612566 / bohr
 BO0002   : Bond Length=  1.128251 / Angstrom  2.132086 / bohr
 AN0001   : Angle=      175.7801   / Degree    3.067941 / rad

 *******************************************
 * Values of the constraints   / au or rad *
 *******************************************
   Label        C         C0
 Cns001      5.612566  1.889726
 Cns002      2.132086  5.669178
 Cns003      3.067941  3.141593

   7  -289.90739483  -289.90668149     0.00071334  0.02421754  0.03545366  0.00469595  0.13349808  0.29583837  0.00519015     61.55

 Constraints section
ConstraintsConstraintsConstraintsConstraintsConstraintsConstraintsConstraintsConstraintsConstraintsConstraints
ConstraintsConstraintsConstraintsConstraintsConstraintsConstraintsConstraintsConstraintsConstraintsConstraints
Constraints                                                                                        Constraints
Constraints                                 C O N S T R A I N T S                                  Constraints
Constraints                                                                                        Constraints

************************************************************************************************************************
BO0001 = BOND       H11   C6
BO0002 = BOND       H11   C17
AN0001 = ANGLE      C6    H11   C17
VALUES
BO0001 =      1.00000000 ANGSTROM
BO0002 =      3.00000000 ANGSTROM
AN0001 =    180.00000000 DEGREE
************************************************************************************************************************


 *************************************************************
 * Values of the primitive constraints                       *
 *************************************************************
 BO0001   : Bond Length=  2.962053 / Angstrom  5.597469 / bohr
 BO0002   : Bond Length=  1.135842 / Angstrom  2.146430 / bohr
 AN0001   : Angle=      175.7977   / Degree    3.068249 / rad

 *******************************************
 * Values of the constraints   / au or rad *
 *******************************************
   Label        C         C0
 Cns001      5.597469  1.889726
 Cns002      2.146430  5.669178
 Cns003      3.068249  3.141593

   8  -289.90668149  -289.90590939     0.00077210  0.02813352  0.04113718  0.00544875  0.15301480  0.33775175  0.00592547     70.40

 Constraints section
ConstraintsConstraintsConstraintsConstraintsConstraintsConstraintsConstraintsConstraintsConstraintsConstraints
ConstraintsConstraintsConstraintsConstraintsConstraintsConstraintsConstraintsConstraintsConstraintsConstraints
Constraints                                                                                        Constraints
Constraints                                 C O N S T R A I N T S                                  Constraints
Constraints                                                                                        Constraints

************************************************************************************************************************
BO0001 = BOND       H11   C6
BO0002 = BOND       H11   C17
AN0001 = ANGLE      C6    H11   C17
VALUES
BO0001 =      1.00000000 ANGSTROM
BO0002 =      3.00000000 ANGSTROM
AN0001 =    180.00000000 DEGREE
************************************************************************************************************************


 *************************************************************
 * Values of the primitive constraints                       *
 *************************************************************
 BO0001   : Bond Length=  2.956319 / Angstrom  5.586634 / bohr
 BO0002   : Bond Length=  1.141289 / Angstrom  2.156724 / bohr
 AN0001   : Angle=      175.8106   / Degree    3.068473 / rad

 *******************************************
 * Values of the constraints   / au or rad *
 *******************************************
   Label        C         C0
 Cns001      5.586634  1.889726
 Cns002      2.156724  5.669178
 Cns003      3.068473  3.141593

   9  -289.90590939  -289.90508268     0.00082671  0.03078099  0.04506832  0.00596944  0.15490069  0.34734434  0.00609376     79.35

 Constraints section
ConstraintsConstraintsConstraintsConstraintsConstraintsConstraintsConstraintsConstraintsConstraintsConstraints
ConstraintsConstraintsConstraintsConstraintsConstraintsConstraintsConstraintsConstraintsConstraintsConstraints
Constraints                                                                                        Constraints
Constraints                                 C O N S T R A I N T S                                  Constraints
Constraints                                                                                        Constraints

************************************************************************************************************************
BO0001 = BOND       H11   C6
BO0002 = BOND       H11   C17
AN0001 = ANGLE      C6    H11   C17
VALUES
BO0001 =      1.00000000 ANGSTROM
BO0002 =      3.00000000 ANGSTROM
AN0001 =    180.00000000 DEGREE
************************************************************************************************************************


 *************************************************************
 * Values of the primitive constraints                       *
 *************************************************************
 BO0001   : Bond Length=  2.950409 / Angstrom  5.575466 / bohr
 BO0002   : Bond Length=  1.146904 / Angstrom  2.167335 / bohr
 AN0001   : Angle=      175.8239   / Degree    3.068706 / rad

 *******************************************
 * Values of the constraints   / au or rad *
 *******************************************
   Label        C         C0
 Cns001      5.575466  1.889726
 Cns002      2.167335  5.669178
 Cns003      3.068706  3.141593

  10  -289.90508268  -289.90419661     0.00088607  0.03393631  0.04943690  0.00654808  0.15042189  0.34601494  0.00607044     88.32

 Constraints section
ConstraintsConstraintsConstraintsConstraintsConstraintsConstraintsConstraintsConstraintsConstraintsConstraints
ConstraintsConstraintsConstraintsConstraintsConstraintsConstraintsConstraintsConstraintsConstraintsConstraints
Constraints                                                                                        Constraints
Constraints                                 C O N S T R A I N T S                                  Constraints
Constraints                                                                                        Constraints

************************************************************************************************************************
BO0001 = BOND       H11   C6
BO0002 = BOND       H11   C17
AN0001 = ANGLE      C6    H11   C17
VALUES
BO0001 =      1.00000000 ANGSTROM
BO0002 =      3.00000000 ANGSTROM
AN0001 =    180.00000000 DEGREE
************************************************************************************************************************


 *************************************************************
 * Values of the primitive constraints                       *
 *************************************************************
 BO0001   : Bond Length=  2.944552 / Angstrom  5.564397 / bohr
 BO0002   : Bond Length=  1.152469 / Angstrom  2.177850 / bohr
 AN0001   : Angle=      175.8371   / Degree    3.068936 / rad

 *******************************************
 * Values of the constraints   / au or rad *
 *******************************************
   Label        C         C0
 Cns001      5.564397  1.889726
 Cns002      2.177850  5.669178
 Cns003      3.068936  3.141593

  11  -289.90419661  -289.90328180     0.00091482  0.03697610  0.05365303  0.00710652  0.14695093  0.34480176  0.00604915     97.38

 Constraints section
ConstraintsConstraintsConstraintsConstraintsConstraintsConstraintsConstraintsConstraintsConstraintsConstraints
ConstraintsConstraintsConstraintsConstraintsConstraintsConstraintsConstraintsConstraintsConstraintsConstraints
Constraints                                                                                        Constraints
Constraints                                 C O N S T R A I N T S                                  Constraints
Constraints                                                                                        Constraints

************************************************************************************************************************
BO0001 = BOND       H11   C6
BO0002 = BOND       H11   C17
AN0001 = ANGLE      C6    H11   C17
VALUES
BO0001 =      1.00000000 ANGSTROM
BO0002 =      3.00000000 ANGSTROM
AN0001 =    180.00000000 DEGREE
************************************************************************************************************************


 *************************************************************
 * Values of the primitive constraints                       *
 *************************************************************
 BO0001   : Bond Length=  2.938684 / Angstrom  5.553307 / bohr
 BO0002   : Bond Length=  1.158044 / Angstrom  2.188387 / bohr
 AN0001   : Angle=      175.8503   / Degree    3.069167 / rad

 *******************************************
 * Values of the constraints   / au or rad *
 *******************************************
   Label        C         C0
 Cns001      5.553307  1.889726
 Cns002      2.188387  5.669178
 Cns003      3.069167  3.141593

  12  -289.90328180  -289.90234361     0.00093818  0.03956784  0.05746874  0.00761192  0.13969370  0.33260734  0.00583522    106.44

 Constraints section
ConstraintsConstraintsConstraintsConstraintsConstraintsConstraintsConstraintsConstraintsConstraintsConstraints
ConstraintsConstraintsConstraintsConstraintsConstraintsConstraintsConstraintsConstraintsConstraintsConstraints
Constraints                                                                                        Constraints
Constraints                                 C O N S T R A I N T S                                  Constraints
Constraints                                                                                        Constraints

************************************************************************************************************************
BO0001 = BOND       H11   C6
BO0002 = BOND       H11   C17
AN0001 = ANGLE      C6    H11   C17
VALUES
BO0001 =      1.00000000 ANGSTROM
BO0002 =      3.00000000 ANGSTROM
AN0001 =    180.00000000 DEGREE
************************************************************************************************************************


 *************************************************************
 * Values of the primitive constraints                       *
 *************************************************************
 BO0001   : Bond Length=  2.932764 / Angstrom  5.542120 / bohr
 BO0002   : Bond Length=  1.163669 / Angstrom  2.199015 / bohr
 AN0001   : Angle=      175.8635   / Degree    3.069397 / rad

 *******************************************
 * Values of the constraints   / au or rad *
 *******************************************
   Label        C         C0
 Cns001      5.542120  1.889726
 Cns002      2.199015  5.669178
 Cns003      3.069397  3.141593

  13  -289.90234361  -289.90139764     0.00094597  0.04184940  0.06097955  0.00807694  0.15037592  0.36646620  0.00642923    115.59

 Constraints section
ConstraintsConstraintsConstraintsConstraintsConstraintsConstraintsConstraintsConstraintsConstraintsConstraints
ConstraintsConstraintsConstraintsConstraintsConstraintsConstraintsConstraintsConstraintsConstraintsConstraints
Constraints                                                                                        Constraints
Constraints                                 C O N S T R A I N T S                                  Constraints
Constraints                                                                                        Constraints

************************************************************************************************************************
BO0001 = BOND       H11   C6
BO0002 = BOND       H11   C17
AN0001 = ANGLE      C6    H11   C17
VALUES
BO0001 =      1.00000000 ANGSTROM
BO0002 =      3.00000000 ANGSTROM
AN0001 =    180.00000000 DEGREE
************************************************************************************************************************


 *************************************************************
 * Values of the primitive constraints                       *
 *************************************************************
 BO0001   : Bond Length=  2.926560 / Angstrom  5.530397 / bohr
 BO0002   : Bond Length=  1.169562 / Angstrom  2.210152 / bohr
 AN0001   : Angle=      175.8774   / Degree    3.069639 / rad

 *******************************************
 * Values of the constraints   / au or rad *
 *******************************************
   Label        C         C0
 Cns001      5.530397  1.889726
 Cns002      2.210152  5.669178
 Cns003      3.069639  3.141593

  14  -289.90139764  -289.90035385     0.00104380  0.04462617  0.06488563  0.00859431  0.14787939  0.37271873  0.00653893    124.71

 Constraints section
ConstraintsConstraintsConstraintsConstraintsConstraintsConstraintsConstraintsConstraintsConstraintsConstraints
ConstraintsConstraintsConstraintsConstraintsConstraintsConstraintsConstraintsConstraintsConstraintsConstraints
Constraints                                                                                        Constraints
Constraints                                 C O N S T R A I N T S                                  Constraints
Constraints                                                                                        Constraints

************************************************************************************************************************
BO0001 = BOND       H11   C6
BO0002 = BOND       H11   C17
AN0001 = ANGLE      C6    H11   C17
VALUES
BO0001 =      1.00000000 ANGSTROM
BO0002 =      3.00000000 ANGSTROM
AN0001 =    180.00000000 DEGREE
************************************************************************************************************************


 *************************************************************
 * Values of the primitive constraints                       *
 *************************************************************
 BO0001   : Bond Length=  2.919848 / Angstrom  5.517714 / bohr
 BO0002   : Bond Length=  1.175939 / Angstrom  2.222203 / bohr
 AN0001   : Angle=      175.8924   / Degree    3.069902 / rad

 *******************************************
 * Values of the constraints   / au or rad *
 *******************************************
   Label        C         C0
 Cns001      5.517714  1.889726
 Cns002      2.222203  5.669178
 Cns003      3.069902  3.141593

  15  -289.90035385  -289.89930111     0.00105274  0.04717819  0.06864492  0.00909224  0.14820012  0.38363386  0.00673042    133.71

 Constraints section
ConstraintsConstraintsConstraintsConstraintsConstraintsConstraintsConstraintsConstraintsConstraintsConstraints
ConstraintsConstraintsConstraintsConstraintsConstraintsConstraintsConstraintsConstraintsConstraintsConstraints
Constraints                                                                                        Constraints
Constraints                                 C O N S T R A I N T S                                  Constraints
Constraints                                                                                        Constraints

************************************************************************************************************************
BO0001 = BOND       H11   C6
BO0002 = BOND       H11   C17
AN0001 = ANGLE      C6    H11   C17
VALUES
BO0001 =      1.00000000 ANGSTROM
BO0002 =      3.00000000 ANGSTROM
AN0001 =    180.00000000 DEGREE
************************************************************************************************************************


 *************************************************************
 * Values of the primitive constraints                       *
 *************************************************************
 BO0001   : Bond Length=  2.913138 / Angstrom  5.505034 / bohr
 BO0002   : Bond Length=  1.182314 / Angstrom  2.234249 / bohr
 AN0001   : Angle=      175.9075   / Degree    3.070165 / rad

 *******************************************
 * Values of the constraints   / au or rad *
 *******************************************
   Label        C         C0
 Cns001      5.505034  1.889726
 Cns002      2.234249  5.669178
 Cns003      3.070165  3.141593

  16  -289.89930111  -289.89824235     0.00105876  0.05069268  0.07312163  0.00968520  0.14159808  0.37991827  0.00666523    142.67

 Constraints section
ConstraintsConstraintsConstraintsConstraintsConstraintsConstraintsConstraintsConstraintsConstraintsConstraints
ConstraintsConstraintsConstraintsConstraintsConstraintsConstraintsConstraintsConstraintsConstraintsConstraints
Constraints                                                                                        Constraints
Constraints                                 C O N S T R A I N T S                                  Constraints
Constraints                                                                                        Constraints

************************************************************************************************************************
BO0001 = BOND       H11   C6
BO0002 = BOND       H11   C17
AN0001 = ANGLE      C6    H11   C17
VALUES
BO0001 =      1.00000000 ANGSTROM
BO0002 =      3.00000000 ANGSTROM
AN0001 =    180.00000000 DEGREE
************************************************************************************************************************


 *************************************************************
 * Values of the primitive constraints                       *
 *************************************************************
 BO0001   : Bond Length=  2.906280 / Angstrom  5.492074 / bohr
 BO0002   : Bond Length=  1.188829 / Angstrom  2.246562 / bohr
 AN0001   : Angle=      175.9230   / Degree    3.070436 / rad

 *******************************************
 * Values of the constraints   / au or rad *
 *******************************************
   Label        C         C0
 Cns001      5.492074  1.889726
 Cns002      2.246562  5.669178
 Cns003      3.070436  3.141593

  17  -289.89824235  -289.89724190     0.00100045  0.05385355  0.07725107  0.01023215  0.13899977  0.38718132  0.00679265    151.70

 Constraints section
ConstraintsConstraintsConstraintsConstraintsConstraintsConstraintsConstraintsConstraintsConstraintsConstraints
ConstraintsConstraintsConstraintsConstraintsConstraintsConstraintsConstraintsConstraintsConstraintsConstraints
Constraints                                                                                        Constraints
Constraints                                 C O N S T R A I N T S                                  Constraints
Constraints                                                                                        Constraints

************************************************************************************************************************
BO0001 = BOND       H11   C6
BO0002 = BOND       H11   C17
AN0001 = ANGLE      C6    H11   C17
VALUES
BO0001 =      1.00000000 ANGSTROM
BO0002 =      3.00000000 ANGSTROM
AN0001 =    180.00000000 DEGREE
************************************************************************************************************************


 *************************************************************
 * Values of the primitive constraints                       *
 *************************************************************
 BO0001   : Bond Length=  2.899262 / Angstrom  5.478812 / bohr
 BO0002   : Bond Length=  1.195497 / Angstrom  2.259162 / bohr
 AN0001   : Angle=      175.9386   / Degree    3.070708 / rad

 *******************************************
 * Values of the constraints   / au or rad *
 *******************************************
   Label        C         C0
 Cns001      5.478812  1.889726
 Cns002      2.259162  5.669178
 Cns003      3.070708  3.141593

  18  -289.89724190  -289.89623456     0.00100734  0.05671817  0.08112839  0.01074572  0.14156350  0.39423861  0.00691647    160.77

 Constraints section
ConstraintsConstraintsConstraintsConstraintsConstraintsConstraintsConstraintsConstraintsConstraintsConstraints
ConstraintsConstraintsConstraintsConstraintsConstraintsConstraintsConstraintsConstraintsConstraintsConstraints
Constraints                                                                                        Constraints
Constraints                                 C O N S T R A I N T S                                  Constraints
Constraints                                                                                        Constraints

************************************************************************************************************************
BO0001 = BOND       H11   C6
BO0002 = BOND       H11   C17
AN0001 = ANGLE      C6    H11   C17
VALUES
BO0001 =      1.00000000 ANGSTROM
BO0002 =      3.00000000 ANGSTROM
AN0001 =    180.00000000 DEGREE
************************************************************************************************************************


 *************************************************************
 * Values of the primitive constraints                       *
 *************************************************************
 BO0001   : Bond Length=  2.892459 / Angstrom  5.465956 / bohr
 BO0002   : Bond Length=  1.201960 / Angstrom  2.271375 / bohr
 AN0001   : Angle=      175.9541   / Degree    3.070979 / rad

 *******************************************
 * Values of the constraints   / au or rad *
 *******************************************
   Label        C         C0
 Cns001      5.465956  1.889726
 Cns002      2.271375  5.669178
 Cns003      3.070979  3.141593

  19  -289.89623456  -289.89535531     0.00087924  0.05916855  0.08463619  0.01121034  0.13968474  0.37653631  0.00660590    169.69

 Constraints section
ConstraintsConstraintsConstraintsConstraintsConstraintsConstraintsConstraintsConstraintsConstraintsConstraints
ConstraintsConstraintsConstraintsConstraintsConstraintsConstraintsConstraintsConstraintsConstraintsConstraints
Constraints                                                                                        Constraints
Constraints                                 C O N S T R A I N T S                                  Constraints
Constraints                                                                                        Constraints

************************************************************************************************************************
BO0001 = BOND       H11   C6
BO0002 = BOND       H11   C17
AN0001 = ANGLE      C6    H11   C17
VALUES
BO0001 =      1.00000000 ANGSTROM
BO0002 =      3.00000000 ANGSTROM
AN0001 =    180.00000000 DEGREE
************************************************************************************************************************


 *************************************************************
 * Values of the primitive constraints                       *
 *************************************************************
 BO0001   : Bond Length=  2.885963 / Angstrom  5.453680 / bohr
 BO0002   : Bond Length=  1.208132 / Angstrom  2.283038 / bohr
 AN0001   : Angle=      175.9688   / Degree    3.071235 / rad

 *******************************************
 * Values of the constraints   / au or rad *
 *******************************************
   Label        C         C0
 Cns001      5.453680  1.889726
 Cns002      2.283038  5.669178
 Cns003      3.071235  3.141593

  20  -289.89535531  -289.89449458     0.00086073  0.06137552  0.08781622  0.01163154  0.14096067  0.36879303  0.00647005    178.63

 Constraints section
ConstraintsConstraintsConstraintsConstraintsConstraintsConstraintsConstraintsConstraintsConstraintsConstraints
ConstraintsConstraintsConstraintsConstraintsConstraintsConstraintsConstraintsConstraintsConstraintsConstraints
Constraints                                                                                        Constraints
Constraints                                 C O N S T R A I N T S                                  Constraints
Constraints                                                                                        Constraints

************************************************************************************************************************
BO0001 = BOND       H11   C6
BO0002 = BOND       H11   C17
AN0001 = ANGLE      C6    H11   C17
VALUES
BO0001 =      1.00000000 ANGSTROM
BO0002 =      3.00000000 ANGSTROM
AN0001 =    180.00000000 DEGREE
************************************************************************************************************************


 *************************************************************
 * Values of the primitive constraints                       *
 *************************************************************
 BO0001   : Bond Length=  2.879757 / Angstrom  5.441951 / bohr
 BO0002   : Bond Length=  1.214028 / Angstrom  2.294181 / bohr
 AN0001   : Angle=      175.9827   / Degree    3.071478 / rad

 *******************************************
 * Values of the constraints   / au or rad *
 *******************************************
   Label        C         C0
 Cns001      5.441951  1.889726
 Cns002      2.294181  5.669178
 Cns003      3.071478  3.141593

  21  -289.89449458  -289.89372103     0.00077355  0.06305467  0.09052692  0.01199058  0.14098043  0.35786790  0.00627838    187.70

 Constraints section
ConstraintsConstraintsConstraintsConstraintsConstraintsConstraintsConstraintsConstraintsConstraintsConstraints
ConstraintsConstraintsConstraintsConstraintsConstraintsConstraintsConstraintsConstraintsConstraintsConstraints
Constraints                                                                                        Constraints
Constraints                                 C O N S T R A I N T S                                  Constraints
Constraints                                                                                        Constraints

************************************************************************************************************************
BO0001 = BOND       H11   C6
BO0002 = BOND       H11   C17
AN0001 = ANGLE      C6    H11   C17
VALUES
BO0001 =      1.00000000 ANGSTROM
BO0002 =      3.00000000 ANGSTROM
AN0001 =    180.00000000 DEGREE
************************************************************************************************************************


 *************************************************************
 * Values of the primitive constraints                       *
 *************************************************************
 BO0001   : Bond Length=  2.873773 / Angstrom  5.430645 / bohr
 BO0002   : Bond Length=  1.219713 / Angstrom  2.304923 / bohr
 AN0001   : Angle=      175.9961   / Degree    3.071712 / rad

 *******************************************
 * Values of the constraints   / au or rad *
 *******************************************
   Label        C         C0
 Cns001      5.430645  1.889726
 Cns002      2.304923  5.669178
 Cns003      3.071712  3.141593

  22  -289.89372103  -289.89300121     0.00071982  0.06497738  0.09333881  0.01236303  0.14175394  0.35043235  0.00614794    196.76

 Constraints section
ConstraintsConstraintsConstraintsConstraintsConstraintsConstraintsConstraintsConstraintsConstraintsConstraints
ConstraintsConstraintsConstraintsConstraintsConstraintsConstraintsConstraintsConstraintsConstraintsConstraints
Constraints                                                                                        Constraints
Constraints                                 C O N S T R A I N T S                                  Constraints
Constraints                                                                                        Constraints

************************************************************************************************************************
BO0001 = BOND       H11   C6
BO0002 = BOND       H11   C17
AN0001 = ANGLE      C6    H11   C17
VALUES
BO0001 =      1.00000000 ANGSTROM
BO0002 =      3.00000000 ANGSTROM
AN0001 =    180.00000000 DEGREE
************************************************************************************************************************


 *************************************************************
 * Values of the primitive constraints                       *
 *************************************************************
 BO0001   : Bond Length=  2.867931 / Angstrom  5.419604 / bohr
 BO0002   : Bond Length=  1.225263 / Angstrom  2.315412 / bohr
 AN0001   : Angle=      176.0092   / Degree    3.071939 / rad

 *******************************************
 * Values of the constraints   / au or rad *
 *******************************************
   Label        C         C0
 Cns001      5.419604  1.889726
 Cns002      2.315412  5.669178
 Cns003      3.071939  3.141593

  23  -289.89300121  -289.89234058     0.00066063  0.06680162  0.09600727  0.01271647  0.14242279  0.34409070  0.00603668    205.70

 Constraints section
ConstraintsConstraintsConstraintsConstraintsConstraintsConstraintsConstraintsConstraintsConstraintsConstraints
ConstraintsConstraintsConstraintsConstraintsConstraintsConstraintsConstraintsConstraintsConstraintsConstraints
Constraints                                                                                        Constraints
Constraints                                 C O N S T R A I N T S                                  Constraints
Constraints                                                                                        Constraints

************************************************************************************************************************
BO0001 = BOND       H11   C6
BO0002 = BOND       H11   C17
AN0001 = ANGLE      C6    H11   C17
VALUES
BO0001 =      1.00000000 ANGSTROM
BO0002 =      3.00000000 ANGSTROM
AN0001 =    180.00000000 DEGREE
************************************************************************************************************************


 *************************************************************
 * Values of the primitive constraints                       *
 *************************************************************
 BO0001   : Bond Length=  2.862183 / Angstrom  5.408743 / bohr
 BO0002   : Bond Length=  1.230724 / Angstrom  2.325730 / bohr
 AN0001   : Angle=      176.0220   / Degree    3.072163 / rad

 *******************************************
 * Values of the constraints   / au or rad *
 *******************************************
   Label        C         C0
 Cns001      5.408743  1.889726
 Cns002      2.325730  5.669178
 Cns003      3.072163  3.141593

  24  -289.89234058  -289.89176695     0.00057363  0.06849769  0.09852823  0.01305038  0.14303518  0.33881366  0.00594410    214.70

 Constraints section
ConstraintsConstraintsConstraintsConstraintsConstraintsConstraintsConstraintsConstraintsConstraintsConstraints
ConstraintsConstraintsConstraintsConstraintsConstraintsConstraintsConstraintsConstraintsConstraintsConstraints
Constraints                                                                                        Constraints
Constraints                                 C O N S T R A I N T S                                  Constraints
Constraints                                                                                        Constraints

************************************************************************************************************************
BO0001 = BOND       H11   C6
BO0002 = BOND       H11   C17
AN0001 = ANGLE      C6    H11   C17
VALUES
BO0001 =      1.00000000 ANGSTROM
BO0002 =      3.00000000 ANGSTROM
AN0001 =    180.00000000 DEGREE
************************************************************************************************************************


 *************************************************************
 * Values of the primitive constraints                       *
 *************************************************************
 BO0001   : Bond Length=  2.856489 / Angstrom  5.397982 / bohr
 BO0002   : Bond Length=  1.236134 / Angstrom  2.335954 / bohr
 AN0001   : Angle=      176.0346   / Degree    3.072383 / rad

 *******************************************
 * Values of the constraints   / au or rad *
 *******************************************
   Label        C         C0
 Cns001      5.397982  1.889726
 Cns002      2.335954  5.669178
 Cns003      3.072383  3.141593

  25  -289.89176695  -289.89118647     0.00058048  0.07007060  0.10090303  0.01336493  0.14357075  0.33408857  0.00586120    224.04

 Constraints section
ConstraintsConstraintsConstraintsConstraintsConstraintsConstraintsConstraintsConstraintsConstraintsConstraints
ConstraintsConstraintsConstraintsConstraintsConstraintsConstraintsConstraintsConstraintsConstraintsConstraints
Constraints                                                                                        Constraints
Constraints                                 C O N S T R A I N T S                                  Constraints
Constraints                                                                                        Constraints

************************************************************************************************************************
BO0001 = BOND       H11   C6
BO0002 = BOND       H11   C17
AN0001 = ANGLE      C6    H11   C17
VALUES
BO0001 =      1.00000000 ANGSTROM
BO0002 =      3.00000000 ANGSTROM
AN0001 =    180.00000000 DEGREE
************************************************************************************************************************


 *************************************************************
 * Values of the primitive constraints                       *
 *************************************************************
 BO0001   : Bond Length=  2.850851 / Angstrom  5.387328 / bohr
 BO0002   : Bond Length=  1.241490 / Angstrom  2.346075 / bohr
 AN0001   : Angle=      176.0471   / Degree    3.072601 / rad

 *******************************************
 * Values of the constraints   / au or rad *
 *******************************************
   Label        C         C0
 Cns001      5.387328  1.889726
 Cns002      2.346075  5.669178
 Cns003      3.072601  3.141593

  26  -289.89118647  -289.89051172     0.00067475  0.07150364  0.10312266  0.01365893  0.14249150  0.32712203  0.00573898    232.69

 Constraints section
ConstraintsConstraintsConstraintsConstraintsConstraintsConstraintsConstraintsConstraintsConstraintsConstraints
ConstraintsConstraintsConstraintsConstraintsConstraintsConstraintsConstraintsConstraintsConstraintsConstraints
Constraints                                                                                        Constraints
Constraints                                 C O N S T R A I N T S                                  Constraints
Constraints                                                                                        Constraints

************************************************************************************************************************
BO0001 = BOND       H11   C6
BO0002 = BOND       H11   C17
AN0001 = ANGLE      C6    H11   C17
VALUES
BO0001 =      1.00000000 ANGSTROM
BO0002 =      3.00000000 ANGSTROM
AN0001 =    180.00000000 DEGREE
************************************************************************************************************************


 *************************************************************
 * Values of the primitive constraints                       *
 *************************************************************
 BO0001   : Bond Length=  2.845201 / Angstrom  5.376651 / bohr
 BO0002   : Bond Length=  1.246858 / Angstrom  2.356220 / bohr
 AN0001   : Angle=      176.0596   / Degree    3.072819 / rad

 *******************************************
 * Values of the constraints   / au or rad *
 *******************************************
   Label        C         C0
 Cns001      5.376651  1.889726
 Cns002      2.356220  5.669178
 Cns003      3.072819  3.141593

  27  -289.89051172  -289.88983862     0.00067310  0.07291708  0.10525866  0.01394185  0.14314322  0.32324221  0.00567092    241.38

 Constraints section
ConstraintsConstraintsConstraintsConstraintsConstraintsConstraintsConstraintsConstraintsConstraintsConstraints
ConstraintsConstraintsConstraintsConstraintsConstraintsConstraintsConstraintsConstraintsConstraintsConstraints
Constraints                                                                                        Constraints
Constraints                                 C O N S T R A I N T S                                  Constraints
Constraints                                                                                        Constraints

************************************************************************************************************************
BO0001 = BOND       H11   C6
BO0002 = BOND       H11   C17
AN0001 = ANGLE      C6    H11   C17
VALUES
BO0001 =      1.00000000 ANGSTROM
BO0002 =      3.00000000 ANGSTROM
AN0001 =    180.00000000 DEGREE
************************************************************************************************************************


 *************************************************************
 * Values of the primitive constraints                       *
 *************************************************************
 BO0001   : Bond Length=  2.839617 / Angstrom  5.366099 / bohr
 BO0002   : Bond Length=  1.252163 / Angstrom  2.366245 / bohr
 AN0001   : Angle=      176.0719   / Degree    3.073034 / rad

 *******************************************
 * Values of the constraints   / au or rad *
 *******************************************
   Label        C         C0
 Cns001      5.366099  1.889726
 Cns002      2.366245  5.669178
 Cns003      3.073034  3.141593

  28  -289.88983862  -289.88929210     0.00054651  0.07429739  0.10732844  0.01421600  0.14342714  0.32339364  0.00567357    250.00

 Constraints section
ConstraintsConstraintsConstraintsConstraintsConstraintsConstraintsConstraintsConstraintsConstraintsConstraints
ConstraintsConstraintsConstraintsConstraintsConstraintsConstraintsConstraintsConstraintsConstraintsConstraints
Constraints                                                                                        Constraints
Constraints                                 C O N S T R A I N T S                                  Constraints
Constraints                                                                                        Constraints

************************************************************************************************************************
BO0001 = BOND       H11   C6
BO0002 = BOND       H11   C17
AN0001 = ANGLE      C6    H11   C17
VALUES
BO0001 =      1.00000000 ANGSTROM
BO0002 =      3.00000000 ANGSTROM
AN0001 =    180.00000000 DEGREE
************************************************************************************************************************


 *************************************************************
 * Values of the primitive constraints                       *
 *************************************************************
 BO0001   : Bond Length=  2.834038 / Angstrom  5.355556 / bohr
 BO0002   : Bond Length=  1.257463 / Angstrom  2.376261 / bohr
 AN0001   : Angle=      176.0841   / Degree    3.073248 / rad

 *******************************************
 * Values of the constraints   / au or rad *
 *******************************************
   Label        C         C0
 Cns001      5.355556  1.889726
 Cns002      2.376261  5.669178
 Cns003      3.073248  3.141593

  29  -289.88929210  -289.88193879     0.00735332  0.07562805  0.10934741  0.01448342  0.15967311  0.41535410  0.00728691    259.32

 Constraints section
ConstraintsConstraintsConstraintsConstraintsConstraintsConstraintsConstraintsConstraintsConstraintsConstraints
ConstraintsConstraintsConstraintsConstraintsConstraintsConstraintsConstraintsConstraintsConstraintsConstraints
Constraints                                                                                        Constraints
Constraints                                 C O N S T R A I N T S                                  Constraints
Constraints                                                                                        Constraints

************************************************************************************************************************
BO0001 = BOND       H11   C6
BO0002 = BOND       H11   C17
AN0001 = ANGLE      C6    H11   C17
VALUES
BO0001 =      1.00000000 ANGSTROM
BO0002 =      3.00000000 ANGSTROM
AN0001 =    180.00000000 DEGREE
************************************************************************************************************************


 *************************************************************
 * Values of the primitive constraints                       *
 *************************************************************
 BO0001   : Bond Length=  2.779673 / Angstrom  5.252821 / bohr
 BO0002   : Bond Length=  1.309120 / Angstrom  2.473878 / bohr
 AN0001   : Angle=      176.1976   / Degree    3.075228 / rad

 *******************************************
 * Values of the constraints   / au or rad *
 *******************************************
   Label        C         C0
 Cns001      5.252821  1.889726
 Cns002      2.473878  5.669178
 Cns003      3.075228  3.141593

  30  -289.88193879  -289.87757067     0.00436812  0.07649483  0.11445430  0.01515984  0.14906706  0.32651964  0.00572841    268.59

 Constraints section
ConstraintsConstraintsConstraintsConstraintsConstraintsConstraintsConstraintsConstraintsConstraintsConstraints
ConstraintsConstraintsConstraintsConstraintsConstraintsConstraintsConstraintsConstraintsConstraintsConstraints
Constraints                                                                                        Constraints
Constraints                                 C O N S T R A I N T S                                  Constraints
Constraints                                                                                        Constraints

************************************************************************************************************************
BO0001 = BOND       H11   C6
BO0002 = BOND       H11   C17
AN0001 = ANGLE      C6    H11   C17
VALUES
BO0001 =      1.00000000 ANGSTROM
BO0002 =      3.00000000 ANGSTROM
AN0001 =    180.00000000 DEGREE
************************************************************************************************************************


 *************************************************************
 * Values of the primitive constraints                       *
 *************************************************************
 BO0001   : Bond Length=  2.747303 / Angstrom  5.191650 / bohr
 BO0002   : Bond Length=  1.339875 / Angstrom  2.531996 / bohr
 AN0001   : Angle=      176.2678   / Degree    3.076454 / rad

 *******************************************
 * Values of the constraints   / au or rad *
 *******************************************
   Label        C         C0
 Cns001      5.191650  1.889726
 Cns002      2.531996  5.669178
 Cns003      3.076454  3.141593

  31  -289.87757067  -289.87677296     0.00079771  0.07975441  0.11982263  0.01587089  0.13742485  0.28662013  0.00502842    277.91

 Constraints section
ConstraintsConstraintsConstraintsConstraintsConstraintsConstraintsConstraintsConstraintsConstraintsConstraints
ConstraintsConstraintsConstraintsConstraintsConstraintsConstraintsConstraintsConstraintsConstraintsConstraints
Constraints                                                                                        Constraints
Constraints                                 C O N S T R A I N T S                                  Constraints
Constraints                                                                                        Constraints

************************************************************************************************************************
BO0001 = BOND       H11   C6
BO0002 = BOND       H11   C17
AN0001 = ANGLE      C6    H11   C17
VALUES
BO0001 =      1.00000000 ANGSTROM
BO0002 =      3.00000000 ANGSTROM
AN0001 =    180.00000000 DEGREE
************************************************************************************************************************


 *************************************************************
 * Values of the primitive constraints                       *
 *************************************************************
 BO0001   : Bond Length=  2.740546 / Angstrom  5.178881 / bohr
 BO0002   : Bond Length=  1.346295 / Angstrom  2.544129 / bohr
 AN0001   : Angle=      176.2827   / Degree    3.076714 / rad

 *******************************************
 * Values of the constraints   / au or rad *
 *******************************************
   Label        C         C0
 Cns001      5.178881  1.889726
 Cns002      2.544129  5.669178
 Cns003      3.076714  3.141593

  32  -289.87677296  -289.86919921     0.00757375  0.08057314  0.12087236  0.01600993  0.35253364  0.70730114  0.01240879    287.13

 Constraints section
ConstraintsConstraintsConstraintsConstraintsConstraintsConstraintsConstraintsConstraintsConstraintsConstraints
ConstraintsConstraintsConstraintsConstraintsConstraintsConstraintsConstraintsConstraintsConstraintsConstraints
Constraints                                                                                        Constraints
Constraints                                 C O N S T R A I N T S                                  Constraints
Constraints                                                                                        Constraints

[...]
   13      0.182D-05      0.418D-06      -290.21222085    791.179395    0.13430   -0.16029    0.68937    9     24.2    357.6
   14      0.695D-06      0.237D-06      -290.21222087    791.179261    0.13435   -0.16034    0.68974    9     22.9    380.5
   15      0.520D-06      0.161D-06      -290.21222087    791.179193    0.13435   -0.16036    0.68982    9     22.0    402.5

 Final alpha occupancy:  28
 Final beta  occupancy:  27

 !UKS STATE  1.1 Energy              -290.212220873344
 Nuclear energy                       268.41412179
 One-electron energy                 -921.20906331
 Two-electron energy                  395.58959669
 Density functional                   -33.00687604     PBEX=-41.67563632 PBEC= -1.75014881
 Virial quotient                       -1.00512105
 !UKS STATE  1.1 Dipole moment          0.13434920    -0.16035748     0.68981964
 Dipole moment /Debye                   0.34145925    -0.40756137     1.75323181

 Orbital energies for positive spin:

         1.1          2.1          3.1          4.1          5.1          6.1          7.1          8.1          9.1         10.1
    -14.447557   -10.343731   -10.228597   -10.213635   -10.212338   -10.211940   -10.210985    -0.984423    -0.842458    -0.761018

        11.1         12.1         13.1         14.1         15.1         16.1         17.1         18.1         19.1         20.1
     -0.705084    -0.650562    -0.580960    -0.521201    -0.486679    -0.463556    -0.449077    -0.429657    -0.421260    -0.402900

        21.1         22.1         23.1         24.1         25.1         26.1         27.1         28.1         29.1         30.1
     -0.402878    -0.398647    -0.394662    -0.376167    -0.365955    -0.338267    -0.335584    -0.328788    -0.012091    -0.010844

 Orbital energies for negative spin:

         1.1          2.1          3.1          4.1          5.1          6.1          7.1          8.1          9.1         10.1
    -14.444217   -10.325421   -10.228570   -10.213632   -10.212328   -10.211928   -10.210824    -0.962217    -0.842225    -0.760832

        11.1         12.1         13.1         14.1         15.1         16.1         17.1         18.1         19.1         20.1
     -0.705021    -0.650299    -0.580382    -0.486629    -0.463442    -0.448962    -0.446040    -0.429259    -0.398639    -0.394850

        21.1         22.1         23.1         24.1         25.1         26.1         27.1         28.1         29.1         30.1
     -0.394617    -0.394268    -0.376041    -0.365831    -0.338235    -0.335594    -0.328705    -0.233737     0.011279     0.013732


 HOMO    -27.1    -0.328705 =      -8.9445eV
 LUMO    -28.1    -0.233737 =      -6.3603eV
 LUMO-HOMO         0.094968 =       2.5842eV

 EXPECTATION VALUE OF S**2:             0.76351131

 Occupation number threshold for pseudo-canonical orbitals: 1.9990 (occupied), 0.0010 (virtual)

 Number of pseudo-canonical occupied orbitals per symmetry:   24
 Number of active natural orbitals per symmetry:               7

 Natural orbitals saved to record    2204.2 (Orbital set 3)

 Orbital spaces for UNO-CAS (Min. occupation: 0.020  Max. occupation: 1.980):

 Closed:       27
 Active:        1


 **********************************************************************************************************************************
 DATASETS  * FILE   NREC   LENGTH (MB)   RECORD NAMES
              1      19       35.38       500      610      700      900      950      970     1001      129      960     1100   
                                          VAR    BASINP    GEOM    SYMINP    ZMAT    AOBASIS   BASIS     P2S    ABASIS      S 
                                         1400     1410     1200     1210     1080     1600     1650     1700     1800   
                                           T        V       H0       H01     AOSYM     SMH    MOLCAS    OPER     GRID   

              2      13       27.53       700     1000      520     2100     1800     2200      520(1)  2201      520(2)  2202   
                                         GEOM     BASIS   MCVARS     RHF     GRID      UKS    MCVARS     UKS    MCVARS     UKS  
                                         1001     2203     2204   
                                         BASIS     UKS      UKS  

 PROGRAMS   *        TOTAL    DF-UKS    DF-UKS       INT    DF-UKS      OPTG    DF-UKS      OPTG    DF-UKS     DF-HF       INT
 CPU TIMES  *      2621.63    402.54     18.14      0.23     11.05   1606.63     81.69    483.03      8.47      9.42      0.29
 REAL TIME  *      2635.17 SEC
 DISK USED  *        89.07 MB
 **********************************************************************************************************************************

 Density functional group PBE0=PBEX+PBEC
 Functional: PBEX(Automatically generated (new) PBEX)                          Gradient terms: 1
 Functional: PBEC(Automatically generated (new) PBEC)                          Gradient terms: 1
 Use libxcgrid:  F
 Use grid at  1800.2


 Exact exchange will be calculated, factor:  0.2500

 Functional: PBEX                      Factor:  0.7500
 Functional: PBEC                      Factor:  1.0000

  234265 words reserved for DFT integration

 PROGRAM * UKS-SCF (Unrestricted Kohn-Sham)     Authors: W. Meyer, H.-J. Werner, P.J. Knowles, 1993

 NUMBER OF ELECTRONS:      28+   27-    SPACE SYMMETRY=1    SPIN SYMMETRY: Doublet 
 CONVERGENCE THRESHOLDS:    1.00E-06 (Density)    1.00E-06 (Energy)
 INTEGRAL THRESHOLDS:       1.00E-11 (Initial)    1.00E-11 (Final)
 MAX. NUMBER OF ITERATIONS:       60
 INTERPOLATION TYPE:            DIIS
 INTERPOLATION STEPS:              2 (START)      1 (STEP)
 LEVEL SHIFTS:                 -0.20 (ALPHA)  -0.20 (BETA) 



 Use fine grid record 1800.2 for energy threshold  1.0D-06
 Molecular orbitals read from record     2204.2  Type=UKS/ALPHA (state 1.1)
 Molecular orbitals read from record     2204.2  Type=UKS/BETA (state 1.1)

 Molecular orbital dump at record        2205.2

 Initial alpha occupation  28
 Initial beta  occupation  27

 Direct Fock-matrix evaluation.        Author: H.-J. Werner (1996)

 Integral Threshold:                  0.1D-10

 ITERATION   DDIFF            GRAD            ENERGY        2-EL.EN.            DIPOLE MOMENTS         DIIS   CPU(IT)  CPU(TOT)
    1      0.000D+00      0.000D+00      -290.21195822    791.179719    0.13435   -0.16036    0.68982    0     32.3     32.3
    2      0.345D-04      0.774D-05      -290.21195968    791.176170    0.13431   -0.16038    0.68977    1     29.9     62.1
    3      0.114D-04      0.135D-05      -290.21195976    791.177343    0.13425   -0.16040    0.68968    2     29.0     91.1
    4      0.407D-05      0.254D-06      -290.21195976    791.177137    0.13426   -0.16047    0.68974    3     27.8    118.9
    5      0.746D-06      0.152D-06      -290.21195977    791.177312    0.13423   -0.16045    0.68962    4     26.1    145.1
    6      0.549D-06      0.107D-06      -290.21195977    791.177455    0.13425   -0.16048    0.68967    5     25.8    170.9

 Final alpha occupancy:  28
 Final beta  occupancy:  27

 !UKS STATE  1.1 Energy              -290.211959766120
 Nuclear energy                       268.41412179
 One-electron energy                 -921.20820256
 Two-electron energy                  395.58872753
 Density functional                   -33.00660653     PBEX=-41.67521020 PBEC= -1.75019888
 Virial quotient                       -1.00513273
 !UKS STATE  1.1 Dipole moment          0.13425085    -0.16047890     0.68967035
 Dipole moment /Debye                   0.34120928    -0.40786997     1.75285237

 Orbital energies for positive spin:

         1.1          2.1          3.1          4.1          5.1          6.1          7.1          8.1          9.1         10.1
    -14.447598   -10.343767   -10.228623   -10.213685   -10.212386   -10.211983   -10.211016    -0.984420    -0.842461    -0.761024

        11.1         12.1         13.1         14.1         15.1         16.1         17.1         18.1         19.1         20.1
     -0.705090    -0.650563    -0.580958    -0.521204    -0.486683    -0.463563    -0.449084    -0.429660    -0.421271    -0.402902

        21.1         22.1         23.1         24.1         25.1         26.1         27.1         28.1         29.1         30.1
     -0.402881    -0.398650    -0.394662    -0.376169    -0.365950    -0.338272    -0.335590    -0.328786    -0.012105    -0.010862

 Orbital energies for negative spin:

         1.1          2.1          3.1          4.1          5.1          6.1          7.1          8.1          9.1         10.1
    -14.444258   -10.325455   -10.228597   -10.213682   -10.212376   -10.211972   -10.210855    -0.962215    -0.842228    -0.760838

        11.1         12.1         13.1         14.1         15.1         16.1         17.1         18.1         19.1         20.1
     -0.705027    -0.650301    -0.580381    -0.486633    -0.463449    -0.448969    -0.446049    -0.429263    -0.398641    -0.394852

        21.1         22.1         23.1         24.1         25.1         26.1         27.1         28.1         29.1         30.1
     -0.394619    -0.394267    -0.376042    -0.365827    -0.338239    -0.335600    -0.328702    -0.233747     0.011263     0.013712


 HOMO    -27.1    -0.328702 =      -8.9444eV
 LUMO    -28.1    -0.233747 =      -6.3606eV
 LUMO-HOMO         0.094954 =       2.5838eV

 EXPECTATION VALUE OF S**2:             0.76350731

 Occupation number threshold for pseudo-canonical orbitals: 1.9990 (occupied), 0.0010 (virtual)

 Number of pseudo-canonical occupied orbitals per symmetry:   24
 Number of active natural orbitals per symmetry:               7

 Natural orbitals saved to record    2205.2 (Orbital set 3)

 Orbital spaces for UNO-CAS (Min. occupation: 0.020  Max. occupation: 1.980):

 Closed:       27
 Active:        1


 **********************************************************************************************************************************
 DATASETS  * FILE   NREC   LENGTH (MB)   RECORD NAMES
              1      19       35.38       500      610      700      900      950      970     1001      129      960     1100   
                                          VAR    BASINP    GEOM    SYMINP    ZMAT    AOBASIS   BASIS     P2S    ABASIS      S 
                                         1400     1410     1200     1210     1080     1600     1650     1700     1800   
                                           T        V       H0       H01     AOSYM     SMH    MOLCAS    OPER     GRID   

              2      14       33.38       700     1000      520     2100     1800     2200      520(1)  2201      520(2)  2202   
                                         GEOM     BASIS   MCVARS     RHF     GRID      UKS    MCVARS     UKS    MCVARS     UKS  
                                         1001     2203     2204     2205   
                                         BASIS     UKS      UKS      UKS  

 PROGRAMS   *        TOTAL   UKS-SCF    DF-UKS    DF-UKS       INT    DF-UKS      OPTG    DF-UKS      OPTG    DF-UKS     DF-HF
 CPU TIMES  *      2792.61    170.98    402.54     18.14      0.23     11.05   1606.63     81.69    483.03      8.47      9.42
 REAL TIME  *      2806.18 SEC
 DISK USED  *        90.00 MB
 **********************************************************************************************************************************

 Density functional group B3LYP=B88+DIRAC+LYP+VWN5
 Functional: B88(Automatically generated (new) B88)                            Gradient terms: 1
 Functional: DIRAC(Automatically generated (new) DIRAC)                        Gradient terms: 0
 Functional: LYP(Automatically generated (new) LYP)                            Gradient terms: 1
 Functional: VWN5(Automatically generated (new) VWN5)                          Gradient terms: 0
 Use libxcgrid:  F
 Use grid at  1800.2


 Exact exchange will be calculated, factor:  0.2000

 Functional: B88                       Factor:  0.7200
 Functional: DIRAC                     Factor:  0.0800
 Functional: LYP                       Factor:  0.8100
 Functional: VWN5                      Factor:  0.1900

  234265 words reserved for DFT integration

 PROGRAM * UKS-SCF (Unrestricted Kohn-Sham)     Authors: W. Meyer, H.-J. Werner, P.J. Knowles, 1993

 NUMBER OF ELECTRONS:      28+   27-    SPACE SYMMETRY=1    SPIN SYMMETRY: Doublet 
 CONVERGENCE THRESHOLDS:    1.00E-06 (Density)    1.00E-06 (Energy)
 INTEGRAL THRESHOLDS:       1.00E-11 (Initial)    1.00E-11 (Final)
 MAX. NUMBER OF ITERATIONS:       60
 INTERPOLATION TYPE:            DIIS
 INTERPOLATION STEPS:              2 (START)      1 (STEP)
 LEVEL SHIFTS:                 -0.20 (ALPHA)  -0.20 (BETA) 



 Use fine grid record 1800.2 for energy threshold  1.0D-06
 Molecular orbitals read from record     2205.2  Type=UKS/ALPHA (state 1.1)
 Molecular orbitals read from record     2205.2  Type=UKS/BETA (state 1.1)

 Molecular orbital dump at record        2206.2

 Initial alpha occupation  28
 Initial beta  occupation  27

 Direct Fock-matrix evaluation.        Author: H.-J. Werner (1996)

 Integral Threshold:                  0.1D-10

 ITERATION   DDIFF            GRAD            ENERGY        2-EL.EN.            DIPOLE MOMENTS         DIIS   CPU(IT)  CPU(TOT)
    1      0.000D+00      0.000D+00      -290.38484320    795.360978    0.13425   -0.16048    0.68967    0     32.5     32.5
    2      0.100D-02      0.388D-03      -290.38897003    795.690958    0.13391   -0.15903    0.69135    1     31.2     63.7
    3      0.167D-03      0.635D-04      -290.38919869    795.372693    0.13000   -0.15458    0.67853    2     30.4     94.1
    4      0.809D-04      0.302D-04      -290.38926024    795.410926    0.13324   -0.15759    0.69758    3     30.1    124.2
    5      0.392D-04      0.199D-04      -290.38929068    795.415625    0.12919   -0.15194    0.68743    4     30.5    154.7
    6      0.270D-04      0.151D-04      -290.38931502    795.388783    0.12971   -0.15203    0.69541    5     30.5    185.2
    7      0.297D-04      0.678D-05      -290.38933955    795.399316    0.12840   -0.15021    0.70114    6     30.3    215.4
    8      0.264D-04      0.410D-05      -290.38935123    795.390358    0.12696   -0.14772    0.70711    7     30.2    245.6
    9      0.102D-04      0.193D-05      -290.38935243    795.391393    0.12652   -0.14720    0.70955    8     29.5    275.1
   10      0.276D-05      0.814D-06      -290.38935254    795.391654    0.12638   -0.14714    0.70997    9     28.7    303.8
   11      0.157D-05      0.566D-06      -290.38935261    795.391578    0.12628   -0.14707    0.70983    9     28.0    331.8
   12      0.106D-05      0.308D-06      -290.38935265    795.391506    0.12617   -0.14702    0.70979    9     27.6    359.4
   13      0.547D-06      0.150D-06      -290.38935265    795.391448    0.12613   -0.14699    0.70978    9     26.6    386.0
   14      0.309D-06      0.109D-06      -290.38935266    795.391512    0.12609   -0.14696    0.70980    9     26.5    412.5

 Final alpha occupancy:  28
 Final beta  occupancy:  27

 !UKS STATE  1.1 Energy              -290.389352658085
 Nuclear energy                       268.41412179
 One-electron energy                 -921.20640125
 Two-electron energy                  397.69575619
 Density functional                   -35.29282938     B88=-41.94205645 DIRAC=-37.69119512 LYP= -1.76001369 VWN5= -3.44022123
 Virial quotient                       -1.00471387
 !UKS STATE  1.1 Dipole moment          0.12608818    -0.14695757     0.70979754
 Dipole moment /Debye                   0.32046319    -0.37350441     1.80400722

 Orbital energies for positive spin:

         1.1          2.1          3.1          4.1          5.1          6.1          7.1          8.1          9.1         10.1
    -14.380184   -10.287255   -10.174816   -10.161949   -10.160606   -10.160332   -10.158815    -0.957937    -0.817614    -0.738355

        11.1         12.1         13.1         14.1         15.1         16.1         17.1         18.1         19.1         20.1
     -0.684152    -0.631281    -0.564111    -0.498805    -0.472285    -0.449467    -0.435743    -0.416724    -0.406133    -0.388753

        21.1         22.1         23.1         24.1         25.1         26.1         27.1         28.1         29.1         30.1
     -0.388639    -0.387044    -0.383356    -0.365289    -0.355744    -0.328434    -0.326086    -0.319353    -0.017988    -0.016898

 Orbital energies for negative spin:

         1.1          2.1          3.1          4.1          5.1          6.1          7.1          8.1          9.1         10.1
    -14.375787   -10.271405   -10.174765   -10.161943   -10.160590   -10.160314   -10.158604    -0.935629    -0.817263    -0.738091

        11.1         12.1         13.1         14.1         15.1         16.1         17.1         18.1         19.1         20.1
     -0.684049    -0.630909    -0.563327    -0.472182    -0.449298    -0.435576    -0.432897    -0.416313    -0.387041    -0.383270

        21.1         22.1         23.1         24.1         25.1         26.1         27.1         28.1         29.1         30.1
     -0.380133    -0.380024    -0.365082    -0.355541    -0.328339    -0.326029    -0.319137    -0.249173     0.001429     0.003478


 HOMO    -27.1    -0.319137 =      -8.6842eV
 LUMO    -28.1    -0.249173 =      -6.7803eV
 LUMO-HOMO         0.069964 =       1.9038eV

 EXPECTATION VALUE OF S**2:             0.75849499

 Occupation number threshold for pseudo-canonical orbitals: 1.9990 (occupied), 0.0010 (virtual)

 Number of pseudo-canonical occupied orbitals per symmetry:   24
 Number of active natural orbitals per symmetry:               7

 Natural orbitals saved to record    2206.2 (Orbital set 3)

 Orbital spaces for UNO-CAS (Min. occupation: 0.020  Max. occupation: 1.980):

 Closed:       27
 Active:        1


 **********************************************************************************************************************************
 DATASETS  * FILE   NREC   LENGTH (MB)   RECORD NAMES
              1      19       35.38       500      610      700      900      950      970     1001      129      960     1100   
                                          VAR    BASINP    GEOM    SYMINP    ZMAT    AOBASIS   BASIS     P2S    ABASIS      S 
                                         1400     1410     1200     1210     1080     1600     1650     1700     1800   
                                           T        V       H0       H01     AOSYM     SMH    MOLCAS    OPER     GRID   

              2      15       39.24       700     1000      520     2100     1800     2200      520(1)  2201      520(2)  2202   
                                         GEOM     BASIS   MCVARS     RHF     GRID      UKS    MCVARS     UKS    MCVARS     UKS  
                                         1001     2203     2204     2205     2206   
                                         BASIS     UKS      UKS      UKS      UKS  

 PROGRAMS   *        TOTAL   UKS-SCF   UKS-SCF    DF-UKS    DF-UKS       INT    DF-UKS      OPTG    DF-UKS      OPTG    DF-UKS
 CPU TIMES  *      3205.16    412.55    170.98    402.54     18.14      0.23     11.05   1606.63     81.69    483.03      8.47
 REAL TIME  *      3218.81 SEC
 DISK USED  *        99.21 MB
 **********************************************************************************************************************************

 UB3LYP/TZVP//CF-UKS/SVP energy=   -290.389352658085

         UKS-SCF         UKS-SCF          DF-UKS          DF-UKS          DF-UKS    OPTG(DF-UKS)          DF-UKS    OPTG(DF-UKS)
   -290.38935266   -290.21195977   -290.21222087   -290.17905336   -289.85513649   -289.89552326   -289.69722278   -289.67701138
 **********************************************************************************************************************************
 Molpro calculation terminated with 2 warning(s)
