
 Primary working directories    : /mnt/storage/home/lb17101/scratch/1380408/molpro.RKahvq7fdw
 Secondary working directories  : /mnt/storage/home/lb17101/scratch/1380408/molpro.RKahvq7fdw
 Wavefunction directory         : /mnt/storage/home/lb17101/optimizations/11/
 Main file repository           : /mnt/storage/home/lb17101/optimizations/11/

 id        : simonbennie

 Nodes                   nprocs
 compute071.bc4.acrc.priv    2

 Using customized tuning parameters: mindgm=1; mindgv=20; mindgc=4; mindgr=1; noblas=0; minvec=7
 default implementation of scratch files=sf  


 Variables initialized (924), CPU time= 0.00 sec
 memory,536,m
 
 geomtyp=xyz
 
 nosym
 noorient
 gdirect
 angstrom
 
 geometry=input.xyz
 Including file /mnt/storage/home/lb17101/optimizations/11/input.xyz
 
 set,charge=0
 
 basis=svp
 cf-uks,pbe
 {cf-uks,pbe,nitord=1;}
 {optg,method=slrf,maxiter=100;
 constraint,1.800,angstrom,bond,atoms=[H11,C6]
 constraint,3.900,angstrom,bond,atoms=[H11,C17]
 constraint,180,deg,angle,atoms=[C6,H11,C17]
 {slopt;}}
 {cf-uks,pbe0,nitord=1;}
 {optg,method=slrf,maxiter=30;
 constraint,1.800,angstrom,bond,atoms=[H11,C6]
 constraint,3.900,angstrom,bond,atoms=[H11,C17]
 constraint,180,deg,angle,atoms=[C6,H11,C17]
 {slopt;}}
 {cf-uks,pbe,nitord=1;}
 basis=tzvp
 {cf-uks,pbe,nitord=1;}
 {cf-uks,pbe0,nitord=1;}
 {uks,pbe0,nitord=1;}
 {uks,b3lyp,nitord=1;}
 Commands  initialized (760), CPU time= 0.01 sec, 616 directives.
 Default parameters read. Elapsed time= 0.05 sec

 Checking input...
 Passed
1


                                         ***  PROGRAM SYSTEM MOLPRO  ***
                                       Copyright, TTI GmbH Stuttgart, 2015
                                    Version 2018.1 linked Oct 16 2018 14:32:03


 **********************************************************************************************************************************
 LABEL *                                                                                 
  64 bit mpp version                                                                     DATE: 11-Nov-18          TIME: 15:51:05  
 **********************************************************************************************************************************

 SHA1:             d673ad554fd0a1ae99daa449513f8b88cca0f763
 **********************************************************************************************************************************
 SETTING GEOMTYP        =    XYZ

 Variable memory set to  536000000 words,  buffer space 

 ZSYMEL=NOSYM
 ZUNIT=ANG

 SETTING CHARGE         =     0.00000000D+00                                  
 SETTING BASIS          =    SVP


 Recomputing integrals since basis changed


 Using spherical harmonics

 Library entry C      S def2-SVP             selected for orbital group  1
 Library entry C      P def2-SVP             selected for orbital group  1
 Library entry C      D def2-SVP             selected for orbital group  1
 Library entry H      S def2-SVP             selected for orbital group  2
 Library entry H      P def2-SVP             selected for orbital group  2
 Library entry N      S def2-SVP             selected for orbital group  8
 Library entry N      P def2-SVP             selected for orbital group  8
 Library entry N      D def2-SVP             selected for orbital group  8


 PROGRAM * SEWARD (Integral evaluation for generally contracted gaussian basis sets)     Author: Roland Lindh, 1990

 Geometry written to block  1 of record 700


 Point group  C1  



 ATOMIC COORDINATES

 NR  ATOM    CHARGE       X              Y              Z

   1  C0      6.00  -15.623034457    4.456181068   -0.744963817
   2  C1      6.00  -12.754161497    4.471148812   -0.270646497
   3  H2      1.00  -16.050724045    4.674077832   -2.791508804
   4  H3      1.00  -16.572723553    6.025924871    0.266890858
   5  H4      1.00  -16.494424527    2.659733771   -0.105170181
   6  C5      6.00  -11.570266300    7.002201743   -1.086802570
   7  C6      6.00  -11.492126434    2.196457185   -1.416610084
   8  H7      1.00  -12.474168993    4.333386856    1.830631913
   9  H8      1.00  -11.763135953    7.285372778   -3.155238719
  10  H9      1.00   -9.533873707    7.111716548   -0.612814725
  11  H10     1.00  -12.520738188    8.609141184   -0.135413196
  12  H11     1.00  -13.007317023    2.744903906   -6.851534638
  13  H12     1.00  -12.665161079    0.480079678   -1.598889749
  14  C13     6.00   -8.691617909    1.890885500   -1.553555080
  15  H14     1.00   -7.738367918    3.530069106   -2.457983525
  16  H15     1.00   -8.137223237    0.166611698   -2.602303197
  17  H16     1.00   -7.827415309    1.731359762    0.371967837
  18  C17     6.00  -13.531628172    3.097804943   -8.831810575
  19  N18     7.00  -14.089116397    3.480071945  -10.933086168

 Bond lengths in Bohr (Angstrom)

 1-2  2.907857117  1-3  2.102080819  1-4  2.095198050  1-5  2.096635267  2-6  2.911004554
     ( 1.538771719)     ( 1.112373265)     ( 1.108731061)     ( 1.109491603)     ( 1.540437271)

  2- 7  2.842566981   2- 8  2.124322271   6- 9  2.096619336   6-10  2.093693570   6-11  2.095421895
       ( 1.504221667)       ( 1.124142935)       ( 1.109483172)       ( 1.107934924)       ( 1.108849514)

  7-13  2.086908695   7-14  2.820456698  12-18  2.078685669  14-15  2.100856790  14-16  2.092927664
       ( 1.104344523)       ( 1.492521409)       ( 1.099993085)       ( 1.111725537)       ( 1.107529624)

 14-17  2.116585245  18-19  2.207324240
       ( 1.120048677)       ( 1.168065685)

 Bond angles

  1-2-6  111.09939358   1-2-7  111.60137794   1-2-8  106.92075244   2-1-3  111.03911382

  2- 1- 4  111.38057269   2- 1- 5  111.38769550   2- 6- 9  110.89278884   2- 6-10  112.18344479

  2- 6-11  110.79429451   2- 7-13  116.34663244   2- 7-14  123.16888649   3- 1- 4  107.47545775

  3-1-5  107.53847579   4-1-5  107.82953177   6-2-7  113.71478466   6-2-8  106.26673734

  7- 2- 8  106.75971964   7-14-15  112.76201543   7-14-16  112.12347607   7-14-17  111.67904931

  9- 6-10  107.80351523   9- 6-11  107.61546168  10- 6-11  107.35429488  12-18-19  179.79963244

 13- 7-14  117.69536096  15-14-16  107.87231350  15-14-17  105.37802152  16-14-17  106.59532687

 NUCLEAR CHARGE:                   55
 NUMBER OF PRIMITIVE AOS:         259
 NUMBER OF SYMMETRY AOS:          252
 NUMBER OF CONTRACTIONS:          158   (  158A   )
 NUMBER OF CORE ORBITALS:           7   (    7A   )
 NUMBER OF VALENCE ORBITALS:       40   (   40A   )


 NUCLEAR REPULSION ENERGY  266.36079263


 Eigenvalues of metric

         1 0.186E-02 0.367E-02 0.455E-02 0.556E-02 0.740E-02 0.190E-01 0.201E-01 0.227E-01


 OPERATOR DM      FOR CENTER  0  COORDINATES:    0.000000    0.000000    0.000000


 **********************************************************************************************************************************
 DATASETS  * FILE   NREC   LENGTH (MB)   RECORD NAMES
              1      18       31.21       500      610      700      900      950      970     1000      129      960     1100   
                                          VAR    BASINP    GEOM    SYMINP    ZMAT    AOBASIS   BASIS     P2S    ABASIS      S 
                                         1400     1410     1200     1210     1080     1600     1650     1700   
                                           T        V       H0       H01     AOSYM     SMH    MOLCAS    OPER   

 PROGRAMS   *        TOTAL       INT
 CPU TIMES  *         0.43      0.30
 REAL TIME  *         0.75 SEC
 DISK USED  *        31.83 MB (local),       63.66 MB (total)
 GA USED    *         0.00 MB       (max)       0.00 MB       (current)
 **********************************************************************************************************************************

 Density functional group PBE=PBEX+PBEC
 Functional: PBEX(Automatically generated (new) PBEX)                          Gradient terms: 1
 Functional: PBEC(Automatically generated (new) PBEC)                          Gradient terms: 1
 Use libxcgrid:  F
 Use grid at  1800.2

 Functional: PBEX                      Factor:  1.0000
 Functional: PBEC                      Factor:  1.0000

 Generated new metagrid on record  1800.2 with target accuracy 1.0D-06 and 63368 points in CPU time    0.6
 Computed new grid on record 1800.1 in CPU time    0.7
  129907 words reserved for DFT integration

 PROGRAM * UKS-SCF (Unrestricted Kohn-Sham)     Authors: W. Meyer, H.-J. Werner, P.J. Knowles, 1993

 NUMBER OF ELECTRONS:      28+   27-    SPACE SYMMETRY=1    SPIN SYMMETRY: Doublet 
 CONVERGENCE THRESHOLDS:    1.00E-06 (Density)    1.00E-06 (Energy)
 INTEGRAL THRESHOLDS:       1.00E-11 (Initial)    1.00E-11 (Final)
 MAX. NUMBER OF ITERATIONS:       60
 INTERPOLATION TYPE:            DIIS
 INTERPOLATION STEPS:              2 (START)      1 (STEP)
 LEVEL SHIFTS:                 -0.20 (ALPHA)  -0.20 (BETA) 



 Use fine grid record 1800.2 for energy threshold  1.0D-06

 Basis set DEF2-SVP/JFIT generated.      Number of basis functions:   475 
 Coulomb fitting
 Screening thresholds:    THRAO_COUL= 1.0D-14    THRAO= 1.0D-12    THROV= 1.0D-12

 Reserved 3 MW to cache 100.0% of significant integrals (6 MW global). CPU: 0.1 sec

 Orbital guess generated from atomic densities. Full valence occupancy:   28
 Using density fitting in orbital guess


 Molecular orbital dump at record        2200.2

 Initial alpha occupation  28
 Initial beta  occupation  27

 ITERATION    DDIFF          GRAD             ENERGY        2-EL.EN.            DIPOLE MOMENTS         DIIS  CPU(IT) CPU(TOT)
    1      0.000D+00      0.000D+00      -289.56836654    827.966388    0.64488   -0.24599    1.99649    0      0.3      0.7
    2      0.110D-01      0.488D-02      -289.83629828    800.645918    0.33938   -0.05119    1.09542    1      0.3      1.0
    3      0.382D-02      0.254D-02      -289.90524983    807.678907    0.46041   -0.18360    1.57768    2      0.3      1.3
    4      0.929D-03      0.556D-03      -289.90855518    807.746187    0.40913   -0.13958    1.38781    3      0.3      1.6
    5      0.679D-03      0.204D-03      -289.90935332    807.531392    0.41103   -0.14231    1.39780    4      0.3      1.9
    6      0.449D-03      0.589D-04      -289.90950894    807.496197    0.40621   -0.14707    1.38594    5      0.3      2.2
    7      0.125D-03      0.249D-04      -289.90952588    807.489419    0.40696   -0.14515    1.38676    6      0.3      2.5
    8      0.493D-04      0.118D-04      -289.90952945    807.490346    0.40710   -0.14618    1.38504    7      0.3      2.8
    9      0.250D-04      0.406D-05      -289.90953006    807.488593    0.40713   -0.14637    1.38549    8      0.3      3.0
   10      0.717D-05      0.978D-06      -289.90953012    807.488743    0.40726   -0.14647    1.38544    7      0.3      3.3
   11      0.190D-05      0.343D-06      -289.90953013    807.488619    0.40726   -0.14649    1.38546    7      0.3      3.6
   12      0.836D-06      0.198D-06      -289.90953013    807.488631    0.40729   -0.14649    1.38548    8      0.3      3.9
   13      0.394D-06      0.835D-07      -289.90953013    807.488612    0.40729   -0.14651    1.38548    8      0.3      4.2

 Final alpha occupancy:  28
 Final beta  occupancy:  27

 !UKS STATE  1.1 Energy              -289.909530127440
 Nuclear energy                       266.36079263
 One-electron energy                 -916.74881700
 Two-electron energy                  403.74430595
 Density functional                   -43.26581170     PBEX=-41.50719172 PBEC= -1.75861998
 Virial quotient                       -1.01213295
 !UKS STATE  1.1 Dipole moment          0.40729122    -0.14650890     1.38547858
 Dipole moment /Debye                   1.03516322    -0.37236410     3.52130464

 Orbital energies for positive spin:

         1.1          2.1          3.1          4.1          5.1          6.1          7.1          8.1          9.1         10.1
    -14.008856    -9.945507    -9.916598    -9.916382    -9.906909    -9.899208    -9.898926    -0.818170    -0.739444    -0.668274

        11.1         12.1         13.1         14.1         15.1         16.1         17.1         18.1         19.1         20.1
     -0.615751    -0.564916    -0.528205    -0.490481    -0.422246    -0.407436    -0.390805    -0.370654    -0.349642    -0.341960

        21.1         22.1         23.1         24.1         25.1         26.1         27.1         28.1         29.1         30.1
     -0.329817    -0.316694    -0.315015    -0.314832    -0.306718    -0.300985    -0.295007    -0.166837    -0.022050    -0.019550

 Orbital energies for negative spin:

         1.1          2.1          3.1          4.1          5.1          6.1          7.1          8.1          9.1         10.1
    -14.008856    -9.945346    -9.917067    -9.907632    -9.903915    -9.898796    -9.898759    -0.818098    -0.731703    -0.661271

        11.1         12.1         13.1         14.1         15.1         16.1         17.1         18.1         19.1         20.1
     -0.614885    -0.556877    -0.527453    -0.480492    -0.416740    -0.404752    -0.386556    -0.362132    -0.348957    -0.340894

        21.1         22.1         23.1         24.1         25.1         26.1         27.1         28.1         29.1         30.1
     -0.326922    -0.316608    -0.314891    -0.314738    -0.303316    -0.298871    -0.290429    -0.095616    -0.021851    -0.019360


 HOMO     28.1    -0.166837 =      -4.5399eV
 LUMO    -28.1    -0.095616 =      -2.6019eV
 LUMO-HOMO         0.071221 =       1.9380eV

 EXPECTATION VALUE OF S**2:             0.75333080

 Occupation number threshold for pseudo-canonical orbitals: 1.9990 (occupied), 0.0010 (virtual)

 Number of pseudo-canonical occupied orbitals per symmetry:   27
 Number of active natural orbitals per symmetry:               1

 Natural orbitals saved to record    2200.2 (Orbital set 3)

 Orbital spaces for UNO-CAS (Min. occupation: 0.020  Max. occupation: 1.980):

 Closed:       27
 Active:        1


 **********************************************************************************************************************************
 DATASETS  * FILE   NREC   LENGTH (MB)   RECORD NAMES
              1      19       31.21       500      610      700      900      950      970     1000      129      960     1100   
                                          VAR    BASINP    GEOM    SYMINP    ZMAT    AOBASIS   BASIS     P2S    ABASIS      S 
                                         1400     1410     1200     1210     1080     1600     1650     1700     1800   
                                           T        V       H0       H01     AOSYM     SMH    MOLCAS    OPER     GRID   

              2       5        4.11       700     1000      520     1800     2200   
                                         GEOM     BASIS   MCVARS    GRID      UKS  

 PROGRAMS   *        TOTAL    DF-UKS       INT
 CPU TIMES  *         5.35      4.91      0.30
 REAL TIME  *         5.82 SEC
 DISK USED  *        35.38 MB (local),       70.77 MB (total)
 SF USED    *         8.04 MB
 GA USED    *         2.09 MB       (max)       2.09 MB       (current)
 **********************************************************************************************************************************

 Density functional group PBE=PBEX+PBEC
 Functional: PBEX(Automatically generated (new) PBEX)                          Gradient terms: 1
 Functional: PBEC(Automatically generated (new) PBEC)                          Gradient terms: 1
 Use libxcgrid:  F
 Use grid at  1800.2

 Functional: PBEX                      Factor:  1.0000
 Functional: PBEC                      Factor:  1.0000

  129907 words reserved for DFT integration

 PROGRAM * UKS-SCF (Unrestricted Kohn-Sham)     Authors: W. Meyer, H.-J. Werner, P.J. Knowles, 1993

 NUMBER OF ELECTRONS:      28+   27-    SPACE SYMMETRY=1    SPIN SYMMETRY: Doublet 
 CONVERGENCE THRESHOLDS:    1.00E-06 (Density)    1.00E-06 (Energy)
 INTEGRAL THRESHOLDS:       1.00E-11 (Initial)    1.00E-11 (Final)
 MAX. NUMBER OF ITERATIONS:       60
 INTERPOLATION TYPE:            DIIS
 INTERPOLATION STEPS:              2 (START)      1 (STEP)
 LEVEL SHIFTS:                 -0.20 (ALPHA)  -0.20 (BETA) 



 Use fine grid record 1800.2 for energy threshold  1.0D-06

 Coulomb fitting
 Screening thresholds:    THRAO_COUL= 1.0D-14    THRAO= 1.0D-12    THROV= 1.0D-12

 Reserved 3 MW to cache 100.0% of significant integrals (6 MW global). CPU: 0.1 sec

 Molecular orbitals read from record     2200.2  Type=UKS/ALPHA (state 1.1)
 Molecular orbitals read from record     2200.2  Type=UKS/BETA (state 1.1)

 Molecular orbital dump at record        2201.2

 Initial alpha occupation  28
 Initial beta  occupation  27

 ITERATION    DDIFF          GRAD             ENERGY        2-EL.EN.            DIPOLE MOMENTS         DIIS  CPU(IT) CPU(TOT)
    1      0.000D+00      0.000D+00      -289.90953013    807.488612    0.40729   -0.14651    1.38548    0      0.3      0.4
    2      0.451D-07      0.296D-07      -289.90953013    807.488615    0.40729   -0.14651    1.38548    1      0.3      0.7
    3      0.590D-07      0.229D-07      -289.90953013    807.488610    0.40729   -0.14651    1.38548    2      0.3      1.0

 Final alpha occupancy:  28
 Final beta  occupancy:  27

 !UKS STATE  1.1 Energy              -289.909530127525
 Nuclear energy                       266.36079263
 One-electron energy                 -916.74881596
 Two-electron energy                  403.74430494
 Density functional                   -43.26581173     PBEX=-41.50719174 PBEC= -1.75861999
 Virial quotient                       -1.01213294
 !UKS STATE  1.1 Dipole moment          0.40729246    -0.14650799     1.38548244
 Dipole moment /Debye                   1.03516638    -0.37236177     3.52131447

 Orbital energies for positive spin:

         1.1          2.1          3.1          4.1          5.1          6.1          7.1          8.1          9.1         10.1
    -14.008857    -9.945506    -9.916598    -9.916382    -9.906909    -9.899208    -9.898926    -0.818171    -0.739444    -0.668274

        11.1         12.1         13.1         14.1         15.1         16.1         17.1         18.1         19.1         20.1
     -0.615751    -0.564916    -0.528205    -0.490481    -0.422246    -0.407436    -0.390805    -0.370654    -0.349642    -0.341960

        21.1         22.1         23.1         24.1         25.1         26.1         27.1         28.1         29.1         30.1
     -0.329817    -0.316694    -0.315015    -0.314832    -0.306718    -0.300985    -0.295007    -0.166837    -0.022049    -0.019550

 Orbital energies for negative spin:

         1.1          2.1          3.1          4.1          5.1          6.1          7.1          8.1          9.1         10.1
    -14.008856    -9.945346    -9.917067    -9.907632    -9.903915    -9.898796    -9.898759    -0.818098    -0.731702    -0.661271

        11.1         12.1         13.1         14.1         15.1         16.1         17.1         18.1         19.1         20.1
     -0.614885    -0.556877    -0.527453    -0.480492    -0.416740    -0.404752    -0.386556    -0.362132    -0.348957    -0.340894

        21.1         22.1         23.1         24.1         25.1         26.1         27.1         28.1         29.1         30.1
     -0.326922    -0.316607    -0.314891    -0.314738    -0.303315    -0.298871    -0.290429    -0.095616    -0.021851    -0.019360


 HOMO     28.1    -0.166837 =      -4.5399eV
 LUMO    -28.1    -0.095616 =      -2.6019eV
 LUMO-HOMO         0.071221 =       1.9380eV

 EXPECTATION VALUE OF S**2:             0.75333067

 Occupation number threshold for pseudo-canonical orbitals: 1.9990 (occupied), 0.0010 (virtual)

 Number of pseudo-canonical occupied orbitals per symmetry:   27
 Number of active natural orbitals per symmetry:               1

 Natural orbitals saved to record    2201.2 (Orbital set 3)

 Orbital spaces for UNO-CAS (Min. occupation: 0.020  Max. occupation: 1.980):

 Closed:       27
 Active:        1


 **********************************************************************************************************************************
 DATASETS  * FILE   NREC   LENGTH (MB)   RECORD NAMES
              1      19       31.21       500      610      700      900      950      970     1000      129      960     1100   
                                          VAR    BASINP    GEOM    SYMINP    ZMAT    AOBASIS   BASIS     P2S    ABASIS      S 
                                         1400     1410     1200     1210     1080     1600     1650     1700     1800   
                                           T        V       H0       H01     AOSYM     SMH    MOLCAS    OPER     GRID   

              2       6        7.62       700     1000      520     1800     2200     2201   
                                         GEOM     BASIS   MCVARS    GRID      UKS      UKS  

 PROGRAMS   *        TOTAL    DF-UKS    DF-UKS       INT
 CPU TIMES  *         6.42      1.07      4.91      0.30
 REAL TIME  *         6.91 SEC
 DISK USED  *        38.89 MB (local),       77.79 MB (total)
 SF USED    *         8.04 MB
 GA USED    *         2.09 MB       (max)       2.09 MB       (current)
 **********************************************************************************************************************************


 PROGRAM * OPT (Geometry optimization)     Authors: F. Eckert and H.-J. Werner


 BFGS update of hessian


********** USER DEFINED INT/FIX/CONSTRAINTS ****************

List of primitive internal coordinates

     N      Name     Type   Natoms   Atom list

     1    Bo0001     Bond        2      H11  C6  
     2    Bo0002     Bond        2      H11  C17 
     3    An0001     Angle       3      C6   H11  C17 

List of user defined internal/fixed coordinates and constraints

- - - - - - - - - - - - - - - - - - - - - - - - - - - - - - - - - 
    N      Name   Type      Pname     Coeff       Value   Unit
- - - - - - - - - - - - - - - - - - - - - - - - - - - - - - - - - 
    1    Cns001    Con     Bo0001     1.000     1.80000 Angstrom
- - - - - - - - - - - - - - - - - - - - - - - - - - - - - - - - - 
    2    Cns002    Con     Bo0002     1.000     3.90000 Angstrom
- - - - - - - - - - - - - - - - - - - - - - - - - - - - - - - - - 
    3    Cns003    Con     An0001     1.000   180.00000   Degree
- - - - - - - - - - - - - - - - - - - - - - - - - - - - - - - - - 


******************************************************************



 *** Long output written to logfile /mnt/storage/home/lb17101/optimizations/11/11_1.80_3.90.log ***


 Geometry optimization using default procedure for command CF-UKS-SCF

 Geometry written to block  1 of record 700

 SLAPAF optimizer by R. Lindh and Ignacio F. Galvan entered

 Constraints section
ConstraintsConstraintsConstraintsConstraintsConstraintsConstraintsConstraintsConstraintsConstraintsConstraints
ConstraintsConstraintsConstraintsConstraintsConstraintsConstraintsConstraintsConstraintsConstraintsConstraints
Constraints                                                                                        Constraints
Constraints                                 C O N S T R A I N T S                                  Constraints
Constraints                                                                                        Constraints

************************************************************************************************************************
BO0001 = BOND       H11   C6
BO0002 = BOND       H11   C17
AN0001 = ANGLE      C6    H11   C17
VALUES
BO0001 =      1.80000000 ANGSTROM
BO0002 =      3.90000000 ANGSTROM
AN0001 =    180.00000000 DEGREE
************************************************************************************************************************


 *************************************************************
 * Values of the primitive constraints                       *
 *************************************************************
 BO0001   : Bond Length=  2.999786 / Angstrom  5.668774 / bohr
 BO0002   : Bond Length=  1.099993 / Angstrom  2.078686 / bohr
 AN0001   : Angle=      175.7129   / Degree    3.066769 / rad

 *******************************************
 * Values of the constraints   / au or rad *
 *******************************************
   Label        C         C0
 Cns001      5.668774  3.401507
 Cns002      2.078686  7.369932
 Cns003      3.066769  3.141593


 ITER.   ENERGY(OLD)    ENERGY(NEW)      DE          GRADMAX     GRADNORM    GRADRMS     STEPMAX     STEPLEN     STEPRMS   CPU-time
   1  -289.90953013  -289.90953925    -0.00000912  0.00531434  0.00802415  0.00106283  0.04740215  0.10117523  0.00177500      4.55

 Constraints section
ConstraintsConstraintsConstraintsConstraintsConstraintsConstraintsConstraintsConstraintsConstraintsConstraints
ConstraintsConstraintsConstraintsConstraintsConstraintsConstraintsConstraintsConstraintsConstraintsConstraints
Constraints                                                                                        Constraints
Constraints                                 C O N S T R A I N T S                                  Constraints
Constraints                                                                                        Constraints

************************************************************************************************************************
BO0001 = BOND       H11   C6
BO0002 = BOND       H11   C17
AN0001 = ANGLE      C6    H11   C17
VALUES
BO0001 =      1.80000000 ANGSTROM
BO0002 =      3.90000000 ANGSTROM
AN0001 =    180.00000000 DEGREE
************************************************************************************************************************


 *************************************************************
 * Values of the primitive constraints                       *
 *************************************************************
 BO0001   : Bond Length=  2.999509 / Angstrom  5.668251 / bohr
 BO0002   : Bond Length=  1.100639 / Angstrom  2.079905 / bohr
 AN0001   : Angle=      175.7139   / Degree    3.066787 / rad

 *******************************************
 * Values of the constraints   / au or rad *
 *******************************************
   Label        C         C0
 Cns001      5.668251  3.401507
 Cns002      2.079905  7.369932
 Cns003      3.066787  3.141593

   2  -289.90953925  -289.90928338     0.00025587  0.00584040  0.00873276  0.00115668  0.25173107  0.53372609  0.00936362      9.66

 Constraints section
ConstraintsConstraintsConstraintsConstraintsConstraintsConstraintsConstraintsConstraintsConstraintsConstraints
ConstraintsConstraintsConstraintsConstraintsConstraintsConstraintsConstraintsConstraintsConstraintsConstraints
Constraints                                                                                        Constraints
Constraints                                 C O N S T R A I N T S                                  Constraints
Constraints                                                                                        Constraints

************************************************************************************************************************
BO0001 = BOND       H11   C6
BO0002 = BOND       H11   C17
AN0001 = ANGLE      C6    H11   C17
VALUES
BO0001 =      1.80000000 ANGSTROM
BO0002 =      3.90000000 ANGSTROM
AN0001 =    180.00000000 DEGREE
************************************************************************************************************************


 *************************************************************
 * Values of the primitive constraints                       *
 *************************************************************
 BO0001   : Bond Length=  2.997379 / Angstrom  5.664225 / bohr
 BO0002   : Bond Length=  1.105603 / Angstrom  2.089288 / bohr
 AN0001   : Angle=      175.7225   / Degree    3.066936 / rad

 *******************************************
 * Values of the constraints   / au or rad *
 *******************************************
   Label        C         C0
 Cns001      5.664225  3.401507
 Cns002      2.089288  7.369932
 Cns003      3.066936  3.141593

   3  -289.90928338  -289.90897610     0.00030728  0.00966803  0.01400380  0.00185485  0.13571405  0.28820594  0.00505624     14.88

 Constraints section
ConstraintsConstraintsConstraintsConstraintsConstraintsConstraintsConstraintsConstraintsConstraintsConstraints
ConstraintsConstraintsConstraintsConstraintsConstraintsConstraintsConstraintsConstraintsConstraintsConstraints
Constraints                                                                                        Constraints
Constraints                                 C O N S T R A I N T S                                  Constraints
Constraints                                                                                        Constraints

************************************************************************************************************************
BO0001 = BOND       H11   C6
BO0002 = BOND       H11   C17
AN0001 = ANGLE      C6    H11   C17
VALUES
BO0001 =      1.80000000 ANGSTROM
BO0002 =      3.90000000 ANGSTROM
AN0001 =    180.00000000 DEGREE
************************************************************************************************************************


 *************************************************************
 * Values of the primitive constraints                       *
 *************************************************************
 BO0001   : Bond Length=  2.994438 / Angstrom  5.658669 / bohr
 BO0002   : Bond Length=  1.112464 / Angstrom  2.102253 / bohr
 AN0001   : Angle=      175.7335   / Degree    3.067128 / rad

 *******************************************
 * Values of the constraints   / au or rad *
 *******************************************
   Label        C         C0
 Cns001      5.658669  3.401507
 Cns002      2.102253  7.369932
 Cns003      3.067128  3.141593

   4  -289.90897610  -289.90850943     0.00046667  0.01415516  0.02030135  0.00268898  0.15546769  0.33884539  0.00594466     19.97

 Constraints section
ConstraintsConstraintsConstraintsConstraintsConstraintsConstraintsConstraintsConstraintsConstraintsConstraints
ConstraintsConstraintsConstraintsConstraintsConstraintsConstraintsConstraintsConstraintsConstraintsConstraints
Constraints                                                                                        Constraints
Constraints                                 C O N S T R A I N T S                                  Constraints
Constraints                                                                                        Constraints

************************************************************************************************************************
BO0001 = BOND       H11   C6
BO0002 = BOND       H11   C17
AN0001 = ANGLE      C6    H11   C17
VALUES
BO0001 =      1.80000000 ANGSTROM
BO0002 =      3.90000000 ANGSTROM
AN0001 =    180.00000000 DEGREE
************************************************************************************************************************


 *************************************************************
 * Values of the primitive constraints                       *
 *************************************************************
 BO0001   : Bond Length=  2.991689 / Angstrom  5.653474 / bohr
 BO0002   : Bond Length=  1.118878 / Angstrom  2.114374 / bohr
 AN0001   : Angle=      175.7439   / Degree    3.067309 / rad

 *******************************************
 * Values of the constraints   / au or rad *
 *******************************************
   Label        C         C0
 Cns001      5.653474  3.401507
 Cns002      2.114374  7.369932
 Cns003      3.067309  3.141593

   5  -289.90850943  -289.90788581     0.00062362  0.01724099  0.02538351  0.00336213  0.14739043  0.31862862  0.00558998     25.09

 Constraints section
ConstraintsConstraintsConstraintsConstraintsConstraintsConstraintsConstraintsConstraintsConstraintsConstraints
ConstraintsConstraintsConstraintsConstraintsConstraintsConstraintsConstraintsConstraintsConstraintsConstraints
Constraints                                                                                        Constraints
Constraints                                 C O N S T R A I N T S                                  Constraints
Constraints                                                                                        Constraints

************************************************************************************************************************
BO0001 = BOND       H11   C6
BO0002 = BOND       H11   C17
AN0001 = ANGLE      C6    H11   C17
VALUES
BO0001 =      1.80000000 ANGSTROM
BO0002 =      3.90000000 ANGSTROM
AN0001 =    180.00000000 DEGREE
************************************************************************************************************************


 *************************************************************
 * Values of the primitive constraints                       *
 *************************************************************
 BO0001   : Bond Length=  2.988445 / Angstrom  5.647343 / bohr
 BO0002   : Bond Length=  1.126448 / Angstrom  2.128678 / bohr
 AN0001   : Angle=      175.7560   / Degree    3.067520 / rad

 *******************************************
 * Values of the constraints   / au or rad *
 *******************************************
   Label        C         C0
 Cns001      5.647343  3.401507
 Cns002      2.128678  7.369932
 Cns003      3.067520  3.141593

   6  -289.90788581  -289.90718507     0.00070074  0.02212248  0.03211371  0.00425356  0.12535213  0.27662615  0.00485309     30.15

 Constraints section
ConstraintsConstraintsConstraintsConstraintsConstraintsConstraintsConstraintsConstraintsConstraintsConstraints
ConstraintsConstraintsConstraintsConstraintsConstraintsConstraintsConstraintsConstraintsConstraintsConstraints
Constraints                                                                                        Constraints
Constraints                                 C O N S T R A I N T S                                  Constraints
Constraints                                                                                        Constraints

************************************************************************************************************************
BO0001 = BOND       H11   C6
BO0002 = BOND       H11   C17
AN0001 = ANGLE      C6    H11   C17
VALUES
BO0001 =      1.80000000 ANGSTROM
BO0002 =      3.90000000 ANGSTROM
AN0001 =    180.00000000 DEGREE
************************************************************************************************************************


 *************************************************************
 * Values of the primitive constraints                       *
 *************************************************************
 BO0001   : Bond Length=  2.985073 / Angstrom  5.640970 / bohr
 BO0002   : Bond Length=  1.134317 / Angstrom  2.143549 / bohr
 AN0001   : Angle=      175.7683   / Degree    3.067736 / rad

 *******************************************
 * Values of the constraints   / au or rad *
 *******************************************
   Label        C         C0
 Cns001      5.640970  3.401507
 Cns002      2.143549  7.369932
 Cns003      3.067736  3.141593

   7  -289.90718507  -289.90626744     0.00091763  0.02683988  0.03870450  0.00512654  0.12375134  0.27641582  0.00484940     35.27

 Constraints section
ConstraintsConstraintsConstraintsConstraintsConstraintsConstraintsConstraintsConstraintsConstraintsConstraints
ConstraintsConstraintsConstraintsConstraintsConstraintsConstraintsConstraintsConstraintsConstraintsConstraints
Constraints                                                                                        Constraints
Constraints                                 C O N S T R A I N T S                                  Constraints
Constraints                                                                                        Constraints

************************************************************************************************************************
BO0001 = BOND       H11   C6
BO0002 = BOND       H11   C17
AN0001 = ANGLE      C6    H11   C17
VALUES
BO0001 =      1.80000000 ANGSTROM
BO0002 =      3.90000000 ANGSTROM
AN0001 =    180.00000000 DEGREE
************************************************************************************************************************


 *************************************************************
 * Values of the primitive constraints                       *
 *************************************************************
 BO0001   : Bond Length=  2.980372 / Angstrom  5.632087 / bohr
 BO0002   : Bond Length=  1.145287 / Angstrom  2.164280 / bohr
 AN0001   : Angle=      175.7855   / Degree    3.068036 / rad

 *******************************************
 * Values of the constraints   / au or rad *
 *******************************************
   Label        C         C0
 Cns001      5.632087  3.401507
 Cns002      2.164280  7.369932
 Cns003      3.068036  3.141593

   8  -289.90626744  -289.90531030     0.00095715  0.03259341  0.04699838  0.00622509  0.15133786  0.33642629  0.00590222     40.32

 Constraints section
ConstraintsConstraintsConstraintsConstraintsConstraintsConstraintsConstraintsConstraintsConstraintsConstraints
ConstraintsConstraintsConstraintsConstraintsConstraintsConstraintsConstraintsConstraintsConstraintsConstraints
Constraints                                                                                        Constraints
Constraints                                 C O N S T R A I N T S                                  Constraints
Constraints                                                                                        Constraints

************************************************************************************************************************
BO0001 = BOND       H11   C6
BO0002 = BOND       H11   C17
AN0001 = ANGLE      C6    H11   C17
VALUES
BO0001 =      1.80000000 ANGSTROM
BO0002 =      3.90000000 ANGSTROM
AN0001 =    180.00000000 DEGREE
************************************************************************************************************************


 *************************************************************
 * Values of the primitive constraints                       *
 *************************************************************
 BO0001   : Bond Length=  2.977160 / Angstrom  5.626016 / bohr
 BO0002   : Bond Length=  1.152782 / Angstrom  2.178443 / bohr
 AN0001   : Angle=      175.7975   / Degree    3.068246 / rad

 *******************************************
 * Values of the constraints   / au or rad *
 *******************************************
   Label        C         C0
 Cns001      5.626016  3.401507
 Cns002      2.178443  7.369932
 Cns003      3.068246  3.141593

   9  -289.90531030  -289.90425207     0.00105823  0.03658109  0.05259879  0.00696688  0.15070857  0.33896004  0.00594667     45.37

 Constraints section
ConstraintsConstraintsConstraintsConstraintsConstraintsConstraintsConstraintsConstraintsConstraintsConstraints
ConstraintsConstraintsConstraintsConstraintsConstraintsConstraintsConstraintsConstraintsConstraintsConstraints
Constraints                                                                                        Constraints
Constraints                                 C O N S T R A I N T S                                  Constraints
Constraints                                                                                        Constraints

************************************************************************************************************************
BO0001 = BOND       H11   C6
BO0002 = BOND       H11   C17
AN0001 = ANGLE      C6    H11   C17
VALUES
BO0001 =      1.80000000 ANGSTROM
BO0002 =      3.90000000 ANGSTROM
AN0001 =    180.00000000 DEGREE
************************************************************************************************************************


 *************************************************************
 * Values of the primitive constraints                       *
 *************************************************************
 BO0001   : Bond Length=  2.973940 / Angstrom  5.619931 / bohr
 BO0002   : Bond Length=  1.160296 / Angstrom  2.192641 / bohr
 AN0001   : Angle=      175.8096   / Degree    3.068456 / rad

 *******************************************
 * Values of the constraints   / au or rad *
 *******************************************
   Label        C         C0
 Cns001      5.619931  3.401507
 Cns002      2.192641  7.369932
 Cns003      3.068456  3.141593

  10  -289.90425207  -289.90314521     0.00110685  0.04057418  0.05809063  0.00769429  0.14971090  0.34465080  0.00604651     50.41

 Constraints section
ConstraintsConstraintsConstraintsConstraintsConstraintsConstraintsConstraintsConstraintsConstraintsConstraints
ConstraintsConstraintsConstraintsConstraintsConstraintsConstraintsConstraintsConstraintsConstraintsConstraints
Constraints                                                                                        Constraints
Constraints                                 C O N S T R A I N T S                                  Constraints
Constraints                                                                                        Constraints

************************************************************************************************************************
BO0001 = BOND       H11   C6
BO0002 = BOND       H11   C17
AN0001 = ANGLE      C6    H11   C17
VALUES
BO0001 =      1.80000000 ANGSTROM
BO0002 =      3.90000000 ANGSTROM
AN0001 =    180.00000000 DEGREE
************************************************************************************************************************


 *************************************************************
 * Values of the primitive constraints                       *
 *************************************************************
 BO0001   : Bond Length=  2.970717 / Angstrom  5.613842 / bohr
 BO0002   : Bond Length=  1.167814 / Angstrom  2.206848 / bohr
 AN0001   : Angle=      175.8217   / Degree    3.068667 / rad

 *******************************************
 * Values of the constraints   / au or rad *
 *******************************************
   Label        C         C0
 Cns001      5.613842  3.401507
 Cns002      2.206848  7.369932
 Cns003      3.068667  3.141593

  11  -289.90314521  -289.90197365     0.00117156  0.04353521  0.06265809  0.00829927  0.14902965  0.34791905  0.00610384     55.57

 Constraints section
ConstraintsConstraintsConstraintsConstraintsConstraintsConstraintsConstraintsConstraintsConstraintsConstraints
ConstraintsConstraintsConstraintsConstraintsConstraintsConstraintsConstraintsConstraintsConstraintsConstraints
Constraints                                                                                        Constraints
Constraints                                 C O N S T R A I N T S                                  Constraints
Constraints                                                                                        Constraints

************************************************************************************************************************
BO0001 = BOND       H11   C6
BO0002 = BOND       H11   C17
AN0001 = ANGLE      C6    H11   C17
VALUES
BO0001 =      1.80000000 ANGSTROM
BO0002 =      3.90000000 ANGSTROM
AN0001 =    180.00000000 DEGREE
************************************************************************************************************************


 *************************************************************
 * Values of the primitive constraints                       *
 *************************************************************
 BO0001   : Bond Length=  2.967481 / Angstrom  5.607726 / bohr
 BO0002   : Bond Length=  1.175366 / Angstrom  2.221119 / bohr
 AN0001   : Angle=      175.8338   / Degree    3.068879 / rad

 *******************************************
 * Values of the constraints   / au or rad *
 *******************************************
   Label        C         C0
 Cns001      5.607726  3.401507
 Cns002      2.221119  7.369932
 Cns003      3.068879  3.141593

  12  -289.90197365  -289.90077584     0.00119781  0.04662294  0.06725370  0.00890797  0.14494712  0.34401714  0.00603539     60.77

 Constraints section
ConstraintsConstraintsConstraintsConstraintsConstraintsConstraintsConstraintsConstraintsConstraintsConstraints
ConstraintsConstraintsConstraintsConstraintsConstraintsConstraintsConstraintsConstraintsConstraintsConstraints
Constraints                                                                                        Constraints
Constraints                                 C O N S T R A I N T S                                  Constraints
Constraints                                                                                        Constraints

************************************************************************************************************************
BO0001 = BOND       H11   C6
BO0002 = BOND       H11   C17
AN0001 = ANGLE      C6    H11   C17
VALUES
BO0001 =      1.80000000 ANGSTROM
BO0002 =      3.90000000 ANGSTROM
AN0001 =    180.00000000 DEGREE
************************************************************************************************************************


 *************************************************************
 * Values of the primitive constraints                       *
 *************************************************************
 BO0001   : Bond Length=  2.964215 / Angstrom  5.601555 / bohr
 BO0002   : Bond Length=  1.182984 / Angstrom  2.235517 / bohr
 AN0001   : Angle=      175.8460   / Degree    3.069092 / rad

 *******************************************
 * Values of the constraints   / au or rad *
 *******************************************
   Label        C         C0
 Cns001      5.601555  3.401507
 Cns002      2.235517  7.369932
 Cns003      3.069092  3.141593

  13  -289.90077584  -289.89952493     0.00125091  0.04964014  0.07168598  0.00949504  0.14840534  0.36070833  0.00632822     65.95

 Constraints section
ConstraintsConstraintsConstraintsConstraintsConstraintsConstraintsConstraintsConstraintsConstraintsConstraints
ConstraintsConstraintsConstraintsConstraintsConstraintsConstraintsConstraintsConstraintsConstraintsConstraints
Constraints                                                                                        Constraints
Constraints                                 C O N S T R A I N T S                                  Constraints
Constraints                                                                                        Constraints

************************************************************************************************************************
BO0001 = BOND       H11   C6
BO0002 = BOND       H11   C17
AN0001 = ANGLE      C6    H11   C17
VALUES
BO0001 =      1.80000000 ANGSTROM
BO0002 =      3.90000000 ANGSTROM
AN0001 =    180.00000000 DEGREE
************************************************************************************************************************


 *************************************************************
 * Values of the primitive constraints                       *
 *************************************************************
 BO0001   : Bond Length=  2.960870 / Angstrom  5.595234 / bohr
 BO0002   : Bond Length=  1.190789 / Angstrom  2.250265 / bohr
 AN0001   : Angle=      175.8585   / Degree    3.069310 / rad

 *******************************************
 * Values of the constraints   / au or rad *
 *******************************************
   Label        C         C0
 Cns001      5.595234  3.401507
 Cns002      2.250265  7.369932
 Cns003      3.069310  3.141593

  14  -289.89952493  -289.89818085     0.00134408  0.05297374  0.07633678  0.01011105  0.14682705  0.36691204  0.00643705     71.21

 Constraints section
ConstraintsConstraintsConstraintsConstraintsConstraintsConstraintsConstraintsConstraintsConstraintsConstraints
ConstraintsConstraintsConstraintsConstraintsConstraintsConstraintsConstraintsConstraintsConstraintsConstraints
Constraints                                                                                        Constraints
Constraints                                 C O N S T R A I N T S                                  Constraints
Constraints                                                                                        Constraints

************************************************************************************************************************
BO0001 = BOND       H11   C6
BO0002 = BOND       H11   C17
AN0001 = ANGLE      C6    H11   C17
VALUES
BO0001 =      1.80000000 ANGSTROM
BO0002 =      3.90000000 ANGSTROM
AN0001 =    180.00000000 DEGREE
************************************************************************************************************************


 *************************************************************
 * Values of the primitive constraints                       *
 *************************************************************
 BO0001   : Bond Length=  2.957451 / Angstrom  5.588772 / bohr
 BO0002   : Bond Length=  1.198767 / Angstrom  2.265340 / bohr
 AN0001   : Angle=      175.8713   / Degree    3.069532 / rad

 *******************************************
 * Values of the constraints   / au or rad *
 *******************************************
   Label        C         C0
 Cns001      5.588772  3.401507
 Cns002      2.265340  7.369932
 Cns003      3.069532  3.141593

  15  -289.89818085  -289.89678669     0.00139416  0.05614907  0.08081525  0.01070424  0.14552870  0.37346172  0.00655196     76.41

 Constraints section
ConstraintsConstraintsConstraintsConstraintsConstraintsConstraintsConstraintsConstraintsConstraintsConstraints
ConstraintsConstraintsConstraintsConstraintsConstraintsConstraintsConstraintsConstraintsConstraintsConstraints
Constraints                                                                                        Constraints
Constraints                                 C O N S T R A I N T S                                  Constraints
Constraints                                                                                        Constraints

************************************************************************************************************************
BO0001 = BOND       H11   C6
BO0002 = BOND       H11   C17
AN0001 = ANGLE      C6    H11   C17
VALUES
BO0001 =      1.80000000 ANGSTROM
BO0002 =      3.90000000 ANGSTROM
AN0001 =    180.00000000 DEGREE
************************************************************************************************************************


 *************************************************************
 * Values of the primitive constraints                       *
 *************************************************************
 BO0001   : Bond Length=  2.953929 / Angstrom  5.582116 / bohr
 BO0002   : Bond Length=  1.206985 / Angstrom  2.280870 / bohr
 AN0001   : Angle=      175.8844   / Degree    3.069762 / rad

 *******************************************
 * Values of the constraints   / au or rad *
 *******************************************
   Label        C         C0
 Cns001      5.582116  3.401507
 Cns002      2.280870  7.369932
 Cns003      3.069762  3.141593

  16  -289.89678669  -289.89532009     0.00146660  0.05832214  0.08446970  0.01118829  0.14485684  0.38477354  0.00675041     81.58

 Constraints section
ConstraintsConstraintsConstraintsConstraintsConstraintsConstraintsConstraintsConstraintsConstraintsConstraints
ConstraintsConstraintsConstraintsConstraintsConstraintsConstraintsConstraintsConstraintsConstraintsConstraints
Constraints                                                                                        Constraints
Constraints                                 C O N S T R A I N T S                                  Constraints
Constraints                                                                                        Constraints

************************************************************************************************************************
BO0001 = BOND       H11   C6
BO0002 = BOND       H11   C17
AN0001 = ANGLE      C6    H11   C17
VALUES
BO0001 =      1.80000000 ANGSTROM
BO0002 =      3.90000000 ANGSTROM
AN0001 =    180.00000000 DEGREE
************************************************************************************************************************


 *************************************************************
 * Values of the primitive constraints                       *
 *************************************************************
 BO0001   : Bond Length=  2.950268 / Angstrom  5.575199 / bohr
 BO0002   : Bond Length=  1.215525 / Angstrom  2.297009 / bohr
 AN0001   : Angle=      175.8980   / Degree    3.070000 / rad

 *******************************************
 * Values of the constraints   / au or rad *
 *******************************************
   Label        C         C0
 Cns001      5.575199  3.401507
 Cns002      2.297009  7.369932
 Cns003      3.070000  3.141593

  17  -289.89532009  -289.89387112     0.00144897  0.06122092  0.08864196  0.01174091  0.14274332  0.39229740  0.00688241     86.68

 Constraints section
ConstraintsConstraintsConstraintsConstraintsConstraintsConstraintsConstraintsConstraintsConstraintsConstraints
ConstraintsConstraintsConstraintsConstraintsConstraintsConstraintsConstraintsConstraintsConstraintsConstraints
Constraints                                                                                        Constraints
Constraints                                 C O N S T R A I N T S                                  Constraints
Constraints                                                                                        Constraints

************************************************************************************************************************
BO0001 = BOND       H11   C6
BO0002 = BOND       H11   C17
AN0001 = ANGLE      C6    H11   C17
VALUES
BO0001 =      1.80000000 ANGSTROM
BO0002 =      3.90000000 ANGSTROM
AN0001 =    180.00000000 DEGREE
************************************************************************************************************************


 *************************************************************
 * Values of the primitive constraints                       *
 *************************************************************
 BO0001   : Bond Length=  2.946464 / Angstrom  5.568010 / bohr
 BO0002   : Bond Length=  1.224401 / Angstrom  2.313783 / bohr
 AN0001   : Angle=      175.9123   / Degree    3.070249 / rad

 *******************************************
 * Values of the constraints   / au or rad *
 *******************************************
   Label        C         C0
 Cns001      5.568010  3.401507
 Cns002      2.313783  7.369932
 Cns003      3.070249  3.141593

  18  -289.89387112  -289.89260058     0.00127055  0.06385960  0.09256919  0.01226109  0.07083543  0.20385789  0.00357645     91.88

 Constraints section
ConstraintsConstraintsConstraintsConstraintsConstraintsConstraintsConstraintsConstraintsConstraintsConstraints
ConstraintsConstraintsConstraintsConstraintsConstraintsConstraintsConstraintsConstraintsConstraintsConstraints
Constraints                                                                                        Constraints
Constraints                                 C O N S T R A I N T S                                  Constraints
Constraints                                                                                        Constraints

************************************************************************************************************************
BO0001 = BOND       H11   C6
BO0002 = BOND       H11   C17
AN0001 = ANGLE      C6    H11   C17
VALUES
BO0001 =      1.80000000 ANGSTROM
BO0002 =      3.90000000 ANGSTROM
AN0001 =    180.00000000 DEGREE
************************************************************************************************************************


 *************************************************************
 * Values of the primitive constraints                       *
 *************************************************************
 BO0001   : Bond Length=  2.942488 / Angstrom  5.560496 / bohr
 BO0002   : Bond Length=  1.233679 / Angstrom  2.331316 / bohr
 AN0001   : Angle=      175.9268   / Degree    3.070502 / rad

 *******************************************
 * Values of the constraints   / au or rad *
 *******************************************
   Label        C         C0
 Cns001      5.560496  3.401507
 Cns002      2.331316  7.369932
 Cns003      3.070502  3.141593

  19  -289.89260058  -289.89132568     0.00127489  0.06252564  0.09308262  0.01232909  0.07298521  0.20340741  0.00356855     97.11

 Constraints section
ConstraintsConstraintsConstraintsConstraintsConstraintsConstraintsConstraintsConstraintsConstraintsConstraints
ConstraintsConstraintsConstraintsConstraintsConstraintsConstraintsConstraintsConstraintsConstraintsConstraints
Constraints                                                                                        Constraints
Constraints                                 C O N S T R A I N T S                                  Constraints
Constraints                                                                                        Constraints

************************************************************************************************************************
BO0001 = BOND       H11   C6
BO0002 = BOND       H11   C17
AN0001 = ANGLE      C6    H11   C17
VALUES
BO0001 =      1.80000000 ANGSTROM
BO0002 =      3.90000000 ANGSTROM
AN0001 =    180.00000000 DEGREE
************************************************************************************************************************


 *************************************************************
 * Values of the primitive constraints                       *
 *************************************************************
 BO0001   : Bond Length=  2.938524 / Angstrom  5.553006 / bohr
 BO0002   : Bond Length=  1.242929 / Angstrom  2.348795 / bohr
 AN0001   : Angle=      175.9413   / Degree    3.070755 / rad

 *******************************************
 * Values of the constraints   / au or rad *
 *******************************************
   Label        C         C0
 Cns001      5.553006  3.401507
 Cns002      2.348795  7.369932
 Cns003      3.070755  3.141593

  20  -289.89132568  -289.88999162     0.00133406  0.07098543  0.10120652  0.01340513  0.11859733  0.32562820  0.00571278    102.24

 Constraints section
ConstraintsConstraintsConstraintsConstraintsConstraintsConstraintsConstraintsConstraintsConstraintsConstraints
ConstraintsConstraintsConstraintsConstraintsConstraintsConstraintsConstraintsConstraintsConstraintsConstraints
Constraints                                                                                        Constraints
Constraints                                 C O N S T R A I N T S                                  Constraints
Constraints                                                                                        Constraints

************************************************************************************************************************
BO0001 = BOND       H11   C6
BO0002 = BOND       H11   C17
AN0001 = ANGLE      C6    H11   C17
VALUES
BO0001 =      1.80000000 ANGSTROM
BO0002 =      3.90000000 ANGSTROM
AN0001 =    180.00000000 DEGREE
************************************************************************************************************************


 *************************************************************
 * Values of the primitive constraints                       *
 *************************************************************
 BO0001   : Bond Length=  2.934850 / Angstrom  5.546064 / bohr
 BO0002   : Bond Length=  1.251500 / Angstrom  2.364993 / bohr
 AN0001   : Angle=      175.9551   / Degree    3.070997 / rad

 *******************************************
 * Values of the constraints   / au or rad *
 *******************************************
   Label        C         C0
 Cns001      5.546064  3.401507
 Cns002      2.364993  7.369932
 Cns003      3.070997  3.141593

  21  -289.88999162  -289.88864963     0.00134199  0.07550431  0.10622426  0.01406975  0.14026883  0.37559091  0.00658931    107.25

 Constraints section
ConstraintsConstraintsConstraintsConstraintsConstraintsConstraintsConstraintsConstraintsConstraintsConstraints
ConstraintsConstraintsConstraintsConstraintsConstraintsConstraintsConstraintsConstraintsConstraintsConstraints
Constraints                                                                                        Constraints
Constraints                                 C O N S T R A I N T S                                  Constraints
Constraints                                                                                        Constraints

************************************************************************************************************************
BO0001 = BOND       H11   C6
BO0002 = BOND       H11   C17
AN0001 = ANGLE      C6    H11   C17
VALUES
BO0001 =      1.80000000 ANGSTROM
BO0002 =      3.90000000 ANGSTROM
AN0001 =    180.00000000 DEGREE
************************************************************************************************************************


 *************************************************************
 * Values of the primitive constraints                       *
 *************************************************************
 BO0001   : Bond Length=  2.931404 / Angstrom  5.539550 / bohr
 BO0002   : Bond Length=  1.259542 / Angstrom  2.380190 / bohr
 AN0001   : Angle=      175.9680   / Degree    3.071222 / rad

 *******************************************
 * Values of the constraints   / au or rad *
 *******************************************
   Label        C         C0
 Cns001      5.539550  3.401507
 Cns002      2.380190  7.369932
 Cns003      3.071222  3.141593

  22  -289.88864963  -289.88737825     0.00127138  0.07595746  0.10790534  0.01429241  0.14025357  0.36584801  0.00641839    112.42

 Constraints section
ConstraintsConstraintsConstraintsConstraintsConstraintsConstraintsConstraintsConstraintsConstraintsConstraints
ConstraintsConstraintsConstraintsConstraintsConstraintsConstraintsConstraintsConstraintsConstraintsConstraints
Constraints                                                                                        Constraints
Constraints                                 C O N S T R A I N T S                                  Constraints
Constraints                                                                                        Constraints

************************************************************************************************************************
BO0001 = BOND       H11   C6
BO0002 = BOND       H11   C17
AN0001 = ANGLE      C6    H11   C17
VALUES
BO0001 =      1.80000000 ANGSTROM
BO0002 =      3.90000000 ANGSTROM
AN0001 =    180.00000000 DEGREE
************************************************************************************************************************


 *************************************************************
 * Values of the primitive constraints                       *
 *************************************************************
 BO0001   : Bond Length=  2.928041 / Angstrom  5.533195 / bohr
 BO0002   : Bond Length=  1.267389 / Angstrom  2.395018 / bohr
 AN0001   : Angle=      175.9806   / Degree    3.071440 / rad

 *******************************************
 * Values of the constraints   / au or rad *
 *******************************************
   Label        C         C0
 Cns001      5.533195  3.401507
 Cns002      2.395018  7.369932
 Cns003      3.071440  3.141593

  23  -289.88737825  -289.88620405     0.00117420  0.07701186  0.10996841  0.01456567  0.14202170  0.36000329  0.00631585    117.53

 Constraints section
ConstraintsConstraintsConstraintsConstraintsConstraintsConstraintsConstraintsConstraintsConstraintsConstraints
ConstraintsConstraintsConstraintsConstraintsConstraintsConstraintsConstraintsConstraintsConstraintsConstraints
Constraints                                                                                        Constraints
Constraints                                 C O N S T R A I N T S                                  Constraints
Constraints                                                                                        Constraints

************************************************************************************************************************
BO0001 = BOND       H11   C6
BO0002 = BOND       H11   C17
AN0001 = ANGLE      C6    H11   C17
VALUES
BO0001 =      1.80000000 ANGSTROM
BO0002 =      3.90000000 ANGSTROM
AN0001 =    180.00000000 DEGREE
************************************************************************************************************************


 *************************************************************
 * Values of the primitive constraints                       *
 *************************************************************
 BO0001   : Bond Length=  2.924747 / Angstrom  5.526970 / bohr
 BO0002   : Bond Length=  1.275075 / Angstrom  2.409542 / bohr
 AN0001   : Angle=      175.9929   / Degree    3.071656 / rad

 *******************************************
 * Values of the constraints   / au or rad *
 *******************************************
   Label        C         C0
 Cns001      5.526970  3.401507
 Cns002      2.409542  7.369932
 Cns003      3.071656  3.141593

  24  -289.88620405  -289.88507349     0.00113056  0.07889808  0.11260875  0.01491539  0.14028778  0.34868620  0.00611730    122.60

 Constraints section
ConstraintsConstraintsConstraintsConstraintsConstraintsConstraintsConstraintsConstraintsConstraintsConstraints
ConstraintsConstraintsConstraintsConstraintsConstraintsConstraintsConstraintsConstraintsConstraintsConstraints
Constraints                                                                                        Constraints
Constraints                                 C O N S T R A I N T S                                  Constraints
Constraints                                                                                        Constraints

************************************************************************************************************************
BO0001 = BOND       H11   C6
BO0002 = BOND       H11   C17
AN0001 = ANGLE      C6    H11   C17
VALUES
BO0001 =      1.80000000 ANGSTROM
BO0002 =      3.90000000 ANGSTROM
AN0001 =    180.00000000 DEGREE
************************************************************************************************************************


 *************************************************************
 * Values of the primitive constraints                       *
 *************************************************************
 BO0001   : Bond Length=  2.921518 / Angstrom  5.520869 / bohr
 BO0002   : Bond Length=  1.282608 / Angstrom  2.423778 / bohr
 AN0001   : Angle=      176.0049   / Degree    3.071865 / rad

 *******************************************
 * Values of the constraints   / au or rad *
 *******************************************
   Label        C         C0
 Cns001      5.520869  3.401507
 Cns002      2.423778  7.369932
 Cns003      3.071865  3.141593

  25  -289.88507349  -289.88402561     0.00104788  0.08097869  0.11530330  0.01527229  0.14177494  0.34462634  0.00604608    127.64

 Constraints section
ConstraintsConstraintsConstraintsConstraintsConstraintsConstraintsConstraintsConstraintsConstraintsConstraints
ConstraintsConstraintsConstraintsConstraintsConstraintsConstraintsConstraintsConstraintsConstraintsConstraints
Constraints                                                                                        Constraints
Constraints                                 C O N S T R A I N T S                                  Constraints
Constraints                                                                                        Constraints

************************************************************************************************************************
BO0001 = BOND       H11   C6
BO0002 = BOND       H11   C17
AN0001 = ANGLE      C6    H11   C17
VALUES
BO0001 =      1.80000000 ANGSTROM
BO0002 =      3.90000000 ANGSTROM
AN0001 =    180.00000000 DEGREE
************************************************************************************************************************


 *************************************************************
 * Values of the primitive constraints                       *
 *************************************************************
 BO0001   : Bond Length=  2.918339 / Angstrom  5.514861 / bohr
 BO0002   : Bond Length=  1.290026 / Angstrom  2.437795 / bohr
 AN0001   : Angle=      176.0166   / Degree    3.072069 / rad

 *******************************************
 * Values of the constraints   / au or rad *
 *******************************************
   Label        C         C0
 Cns001      5.514861  3.401507
 Cns002      2.437795  7.369932
 Cns003      3.072069  3.141593

  26  -289.88402561  -289.88290905     0.00111655  0.08137918  0.11663805  0.01544909  0.14493921  0.34724603  0.00609204    132.66

 Constraints section
ConstraintsConstraintsConstraintsConstraintsConstraintsConstraintsConstraintsConstraintsConstraintsConstraints
ConstraintsConstraintsConstraintsConstraintsConstraintsConstraintsConstraintsConstraintsConstraintsConstraints
Constraints                                                                                        Constraints
Constraints                                 C O N S T R A I N T S                                  Constraints
Constraints                                                                                        Constraints

************************************************************************************************************************
BO0001 = BOND       H11   C6
BO0002 = BOND       H11   C17
AN0001 = ANGLE      C6    H11   C17
VALUES
BO0001 =      1.80000000 ANGSTROM
BO0002 =      3.90000000 ANGSTROM
AN0001 =    180.00000000 DEGREE
************************************************************************************************************************


 *************************************************************
 * Values of the primitive constraints                       *
 *************************************************************
 BO0001   : Bond Length=  2.915078 / Angstrom  5.508698 / bohr
 BO0002   : Bond Length=  1.297635 / Angstrom  2.452174 / bohr
 AN0001   : Angle=      176.0287   / Degree    3.072281 / rad

 *******************************************
 * Values of the constraints   / au or rad *
 *******************************************
   Label        C         C0
 Cns001      5.508698  3.401507
 Cns002      2.452174  7.369932
 Cns003      3.072281  3.141593

  27  -289.88290905  -289.88176591     0.00114314  0.08331188  0.11912168  0.01577805  0.14482986  0.34083246  0.00597952    137.73

 Constraints section
ConstraintsConstraintsConstraintsConstraintsConstraintsConstraintsConstraintsConstraintsConstraintsConstraints
ConstraintsConstraintsConstraintsConstraintsConstraintsConstraintsConstraintsConstraintsConstraintsConstraints
Constraints                                                                                        Constraints
Constraints                                 C O N S T R A I N T S                                  Constraints
Constraints                                                                                        Constraints

************************************************************************************************************************
BO0001 = BOND       H11   C6
BO0002 = BOND       H11   C17
AN0001 = ANGLE      C6    H11   C17
VALUES
BO0001 =      1.80000000 ANGSTROM
BO0002 =      3.90000000 ANGSTROM
AN0001 =    180.00000000 DEGREE
************************************************************************************************************************


 *************************************************************
 * Values of the primitive constraints                       *
 *************************************************************
 BO0001   : Bond Length=  2.911884 / Angstrom  5.502664 / bohr
 BO0002   : Bond Length=  1.305086 / Angstrom  2.466254 / bohr
 AN0001   : Angle=      176.0405   / Degree    3.072487 / rad

 *******************************************
 * Values of the constraints   / au or rad *
 *******************************************
   Label        C         C0
 Cns001      5.502664  3.401507
 Cns002      2.466254  7.369932
 Cns003      3.072487  3.141593

  28  -289.88176591  -289.88067348     0.00109244  0.08453108  0.12098111  0.01602434  0.14727268  0.34648235  0.00607864    142.87

 Constraints section
ConstraintsConstraintsConstraintsConstraintsConstraintsConstraintsConstraintsConstraintsConstraintsConstraints
ConstraintsConstraintsConstraintsConstraintsConstraintsConstraintsConstraintsConstraintsConstraintsConstraints
Constraints                                                                                        Constraints
Constraints                                 C O N S T R A I N T S                                  Constraints
Constraints                                                                                        Constraints

************************************************************************************************************************
BO0001 = BOND       H11   C6
BO0002 = BOND       H11   C17
AN0001 = ANGLE      C6    H11   C17
VALUES
BO0001 =      1.80000000 ANGSTROM
BO0002 =      3.90000000 ANGSTROM
AN0001 =    180.00000000 DEGREE
************************************************************************************************************************


 *************************************************************
 * Values of the primitive constraints                       *
 *************************************************************
 BO0001   : Bond Length=  2.908677 / Angstrom  5.496603 / bohr
 BO0002   : Bond Length=  1.312569 / Angstrom  2.480396 / bohr
 AN0001   : Angle=      176.0523   / Degree    3.072693 / rad

 *******************************************
 * Values of the constraints   / au or rad *
 *******************************************
   Label        C         C0
 Cns001      5.496603  3.401507
 Cns002      2.480396  7.369932
 Cns003      3.072693  3.141593

  29  -289.88067348  -289.87958182     0.00109165  0.08519487  0.12236004  0.01620698  0.14874738  0.34493491  0.00605149    147.94

 Constraints section
ConstraintsConstraintsConstraintsConstraintsConstraintsConstraintsConstraintsConstraintsConstraintsConstraints
ConstraintsConstraintsConstraintsConstraintsConstraintsConstraintsConstraintsConstraintsConstraintsConstraints
Constraints                                                                                        Constraints
Constraints                                 C O N S T R A I N T S                                  Constraints
Constraints                                                                                        Constraints

************************************************************************************************************************
BO0001 = BOND       H11   C6
BO0002 = BOND       H11   C17
AN0001 = ANGLE      C6    H11   C17
VALUES
BO0001 =      1.80000000 ANGSTROM
BO0002 =      3.90000000 ANGSTROM
AN0001 =    180.00000000 DEGREE
************************************************************************************************************************


 *************************************************************
 * Values of the primitive constraints                       *
 *************************************************************
 BO0001   : Bond Length=  2.905480 / Angstrom  5.490562 / bohr
 BO0002   : Bond Length=  1.320027 / Angstrom  2.494490 / bohr
 AN0001   : Angle=      176.0641   / Degree    3.072898 / rad

 *******************************************
 * Values of the constraints   / au or rad *
 *******************************************
   Label        C         C0
 Cns001      5.490562  3.401507
 Cns002      2.494490  7.369932
 Cns003      3.072898  3.141593

  30  -289.87958182  -289.87845495     0.00112688  0.08615493  0.12391568  0.01641303  0.14920014  0.34304139  0.00601827    153.09

 Constraints section
ConstraintsConstraintsConstraintsConstraintsConstraintsConstraintsConstraintsConstraintsConstraintsConstraints
ConstraintsConstraintsConstraintsConstraintsConstraintsConstraintsConstraintsConstraintsConstraintsConstraints
Constraints                                                                                        Constraints
Constraints                                 C O N S T R A I N T S                                  Constraints
Constraints                                                                                        Constraints

************************************************************************************************************************
BO0001 = BOND       H11   C6
BO0002 = BOND       H11   C17
AN0001 = ANGLE      C6    H11   C17
VALUES
BO0001 =      1.80000000 ANGSTROM
BO0002 =      3.90000000 ANGSTROM
AN0001 =    180.00000000 DEGREE
************************************************************************************************************************


 *************************************************************
 * Values of the primitive constraints                       *
 *************************************************************
 BO0001   : Bond Length=  2.902204 / Angstrom  5.484371 / bohr
 BO0002   : Bond Length=  1.327671 / Angstrom  2.508935 / bohr
 AN0001   : Angle=      176.0760   / Degree    3.073106 / rad

 *******************************************
 * Values of the constraints   / au or rad *
 *******************************************
   Label        C         C0
 Cns001      5.484371  3.401507
 Cns002      2.508935  7.369932
 Cns003      3.073106  3.141593

  31  -289.87845495  -289.87739366     0.00106128  0.08577990  0.12444086  0.01648259  0.14313657  0.32472688  0.00569696    158.55

 Constraints section
ConstraintsConstraintsConstraintsConstraintsConstraintsConstraintsConstraintsConstraintsConstraintsConstraints
ConstraintsConstraintsConstraintsConstraintsConstraintsConstraintsConstraintsConstraintsConstraintsConstraints
Constraints                                                                                        Constraints
Constraints                                 C O N S T R A I N T S                                  Constraints
Constraints                                                                                        Constraints

************************************************************************************************************************
BO0001 = BOND       H11   C6
BO0002 = BOND       H11   C17
AN0001 = ANGLE      C6    H11   C17
VALUES
BO0001 =      1.80000000 ANGSTROM
BO0002 =      3.90000000 ANGSTROM
AN0001 =    180.00000000 DEGREE
************************************************************************************************************************


 *************************************************************
 * Values of the primitive constraints                       *
 *************************************************************
 BO0001   : Bond Length=  2.898992 / Angstrom  5.478301 / bohr
 BO0002   : Bond Length=  1.335166 / Angstrom  2.523098 / bohr
 AN0001   : Angle=      176.0879   / Degree    3.073313 / rad

[...]
 Virial quotient                       -1.00647576
 !UKS STATE  1.1 Dipole moment          0.13521163    -0.14322535     1.46116556
 Dipole moment /Debye                   0.34365117    -0.36401869     3.71366915

 Orbital energies for positive spin:

         1.1          2.1          3.1          4.1          5.1          6.1          7.1          8.1          9.1         10.1
    -14.435649   -10.331780   -10.277511   -10.241740   -10.228022   -10.216491   -10.215810    -0.973433    -0.850068    -0.770156

        11.1         12.1         13.1         14.1         15.1         16.1         17.1         18.1         19.1         20.1
     -0.710072    -0.653701    -0.568392    -0.508823    -0.491470    -0.472043    -0.451707    -0.432889    -0.409553    -0.406283

        21.1         22.1         23.1         24.1         25.1         26.1         27.1         28.1         29.1         30.1
     -0.399243    -0.392325    -0.392311    -0.385048    -0.356884    -0.352821    -0.346781    -0.277948    -0.030435     0.001307

 Orbital energies for negative spin:

         1.1          2.1          3.1          4.1          5.1          6.1          7.1          8.1          9.1         10.1
    -14.432447   -10.313698   -10.277306   -10.241728   -10.228015   -10.216484   -10.215809    -0.951745    -0.849821    -0.769961

        11.1         12.1         13.1         14.1         15.1         16.1         17.1         18.1         19.1         20.1
     -0.710048    -0.653465    -0.567988    -0.491209    -0.471943    -0.451567    -0.436454    -0.432465    -0.406250    -0.399222

        21.1         22.1         23.1         24.1         25.1         26.1         27.1         28.1         29.1         30.1
     -0.384982    -0.384233    -0.384221    -0.356692    -0.352741    -0.346634    -0.275215    -0.224345    -0.027985     0.026267


 HOMO    -27.1    -0.275215 =      -7.4890eV
 LUMO    -28.1    -0.224345 =      -6.1047eV
 LUMO-HOMO         0.050870 =       1.3842eV

 EXPECTATION VALUE OF S**2:             0.76336858

 Occupation number threshold for pseudo-canonical orbitals: 1.9990 (occupied), 0.0010 (virtual)

 Number of pseudo-canonical occupied orbitals per symmetry:   24
 Number of active natural orbitals per symmetry:               7

 Natural orbitals saved to record    2205.2 (Orbital set 3)

 Orbital spaces for UNO-CAS (Min. occupation: 0.020  Max. occupation: 1.980):

 Closed:       27
 Active:        1


 **********************************************************************************************************************************
 DATASETS  * FILE   NREC   LENGTH (MB)   RECORD NAMES
              1      19       33.38       500      610      700      900      950      970     1001      129      960     1100   
                                          VAR    BASINP    GEOM    SYMINP    ZMAT    AOBASIS   BASIS     P2S    ABASIS      S 
                                         1400     1410     1200     1210     1080     1600     1650     1700     1800   
                                           T        V       H0       H01     AOSYM     SMH    MOLCAS    OPER     GRID   

              2      14       28.50       700     1000      520     1800     2200     2201      520(1)   700(1)  2202      520(2)
                                         GEOM     BASIS   MCVARS    GRID      UKS      UKS    MCVARS    GEOM      UKS    MCVARS    
                                         2203     1001     2204     2205   
                                          UKS     BASIS     UKS      UKS  

 PROGRAMS   *        TOTAL    DF-UKS    DF-UKS       INT    DF-UKS      OPTG    DF-UKS      OPTG    DF-UKS    DF-UKS       INT
 CPU TIMES  *      2174.72    218.38      7.21      0.20      4.75   1314.29     45.11    578.34      1.07      4.91      0.30
 REAL TIME  *      2198.30 SEC
 DISK USED  *        61.97 MB (local),      123.94 MB (total)
 SF USED    *        26.05 MB
 GA USED    *         2.22 MB       (max)       2.05 MB       (current)
 **********************************************************************************************************************************

 Density functional group PBE0=PBEX+PBEC
 Functional: PBEX(Automatically generated (new) PBEX)                          Gradient terms: 1
 Functional: PBEC(Automatically generated (new) PBEC)                          Gradient terms: 1
 Use libxcgrid:  F
 Use grid at  1800.2


 Exact exchange will be calculated, factor:  0.2500

 Functional: PBEX                      Factor:  0.7500
 Functional: PBEC                      Factor:  1.0000

  234265 words reserved for DFT integration

 PROGRAM * UKS-SCF (Unrestricted Kohn-Sham)     Authors: W. Meyer, H.-J. Werner, P.J. Knowles, 1993

 NUMBER OF ELECTRONS:      28+   27-    SPACE SYMMETRY=1    SPIN SYMMETRY: Doublet 
 CONVERGENCE THRESHOLDS:    1.00E-06 (Density)    1.00E-06 (Energy)
 INTEGRAL THRESHOLDS:       1.00E-11 (Initial)    1.00E-11 (Final)
 MAX. NUMBER OF ITERATIONS:       60
 INTERPOLATION TYPE:            DIIS
 INTERPOLATION STEPS:              2 (START)      1 (STEP)
 LEVEL SHIFTS:                 -0.20 (ALPHA)  -0.20 (BETA) 



 Use fine grid record 1800.2 for energy threshold  1.0D-06
 Molecular orbitals read from record     2205.2  Type=UKS/ALPHA (state 1.1)
 Molecular orbitals read from record     2205.2  Type=UKS/BETA (state 1.1)

 Molecular orbital dump at record        2206.2

 Initial alpha occupation  28
 Initial beta  occupation  27

 Direct Fock-matrix evaluation.        Author: H.-J. Werner (1996)

 Integral Threshold:                  0.1D-10

 ITERATION   DDIFF            GRAD            ENERGY        2-EL.EN.            DIPOLE MOMENTS         DIIS   CPU(IT)  CPU(TOT)
    1      0.000D+00      0.000D+00      -290.12860516    761.054349    0.13521   -0.14323    1.46117    0     15.4     15.5
    2      0.308D-04      0.787D-05      -290.12860670    761.050437    0.13526   -0.14322    1.46126    1     13.6     29.1
    3      0.974D-05      0.138D-05      -290.12860678    761.051678    0.13525   -0.14321    1.46122    2     13.1     42.2
    4      0.355D-05      0.249D-06      -290.12860679    761.051181    0.13525   -0.14321    1.46122    3     12.7     54.8
    5      0.979D-06      0.916D-07      -290.12860679    761.051715    0.13524   -0.14321    1.46118    4     12.0     66.9
    6      0.298D-06      0.395D-07      -290.12860679    761.051577    0.13525   -0.14321    1.46117    5     11.4     78.3

 Final alpha occupancy:  28
 Final beta  occupancy:  27

 !UKS STATE  1.1 Energy              -290.128606786741
 Nuclear energy                       253.56923437
 One-electron energy                 -891.35183215
 Two-electron energy                  380.52578847
 Density functional                   -32.87179748     PBEX=-41.51000541 PBEC= -1.73929342
 Virial quotient                       -1.00648665
 !UKS STATE  1.1 Dipole moment          0.13524510    -0.14320984     1.46117123
 Dipole moment /Debye                   0.34373625    -0.36397925     3.71368357

 Orbital energies for positive spin:

         1.1          2.1          3.1          4.1          5.1          6.1          7.1          8.1          9.1         10.1
    -14.435689   -10.331823   -10.277511   -10.241759   -10.228078   -10.216541   -10.215860    -0.973438    -0.850070    -0.770165

        11.1         12.1         13.1         14.1         15.1         16.1         17.1         18.1         19.1         20.1
     -0.710078    -0.653704    -0.568392    -0.508828    -0.491474    -0.472048    -0.451717    -0.432897    -0.409571    -0.406298

        21.1         22.1         23.1         24.1         25.1         26.1         27.1         28.1         29.1         30.1
     -0.399243    -0.392330    -0.392316    -0.385053    -0.356880    -0.352828    -0.346784    -0.277922    -0.030451     0.001297

 Orbital energies for negative spin:

         1.1          2.1          3.1          4.1          5.1          6.1          7.1          8.1          9.1         10.1
    -14.432484   -10.313741   -10.277305   -10.241746   -10.228071   -10.216533   -10.215858    -0.951745    -0.849822    -0.769970

        11.1         12.1         13.1         14.1         15.1         16.1         17.1         18.1         19.1         20.1
     -0.710054    -0.653468    -0.567988    -0.491212    -0.471948    -0.451576    -0.436460    -0.432473    -0.406265    -0.399222

        21.1         22.1         23.1         24.1         25.1         26.1         27.1         28.1         29.1         30.1
     -0.384987    -0.384236    -0.384225    -0.356689    -0.352748    -0.346637    -0.275193    -0.224355    -0.028003     0.026255


 HOMO    -27.1    -0.275193 =      -7.4884eV
 LUMO    -28.1    -0.224355 =      -6.1050eV
 LUMO-HOMO         0.050838 =       1.3834eV

 EXPECTATION VALUE OF S**2:             0.76336224

 Occupation number threshold for pseudo-canonical orbitals: 1.9990 (occupied), 0.0010 (virtual)

 Number of pseudo-canonical occupied orbitals per symmetry:   24
 Number of active natural orbitals per symmetry:               7

 Natural orbitals saved to record    2206.2 (Orbital set 3)

 Orbital spaces for UNO-CAS (Min. occupation: 0.020  Max. occupation: 1.980):

 Closed:       27
 Active:        1


 **********************************************************************************************************************************
 DATASETS  * FILE   NREC   LENGTH (MB)   RECORD NAMES
              1      19       33.38       500      610      700      900      950      970     1001      129      960     1100   
                                          VAR    BASINP    GEOM    SYMINP    ZMAT    AOBASIS   BASIS     P2S    ABASIS      S 
                                         1400     1410     1200     1210     1080     1600     1650     1700     1800   
                                           T        V       H0       H01     AOSYM     SMH    MOLCAS    OPER     GRID   

              2      15       34.36       700     1000      520     1800     2200     2201      520(1)   700(1)  2202      520(2)
                                         GEOM     BASIS   MCVARS    GRID      UKS      UKS    MCVARS    GEOM      UKS    MCVARS    
                                         2203     1001     2204     2205     2206   
                                          UKS     BASIS     UKS      UKS      UKS  

 PROGRAMS   *        TOTAL   UKS-SCF    DF-UKS    DF-UKS       INT    DF-UKS      OPTG    DF-UKS      OPTG    DF-UKS    DF-UKS
 CPU TIMES  *      2253.12     78.40    218.38      7.21      0.20      4.75   1314.29     45.11    578.34      1.07      4.91
 REAL TIME  *      2276.75 SEC
 DISK USED  *        67.82 MB (local),      135.65 MB (total)
 SF USED    *        26.05 MB
 GA USED    *         2.22 MB       (max)       2.05 MB       (current)
 **********************************************************************************************************************************

 Density functional group B3LYP=B88+DIRAC+LYP+VWN5
 Functional: B88(Automatically generated (new) B88)                            Gradient terms: 1
 Functional: DIRAC(Automatically generated (new) DIRAC)                        Gradient terms: 0
 Functional: LYP(Automatically generated (new) LYP)                            Gradient terms: 1
 Functional: VWN5(Automatically generated (new) VWN5)                          Gradient terms: 0
 Use libxcgrid:  F
 Use grid at  1800.2


 Exact exchange will be calculated, factor:  0.2000

 Functional: B88                       Factor:  0.7200
 Functional: DIRAC                     Factor:  0.0800
 Functional: LYP                       Factor:  0.8100
 Functional: VWN5                      Factor:  0.1900

  234265 words reserved for DFT integration

 PROGRAM * UKS-SCF (Unrestricted Kohn-Sham)     Authors: W. Meyer, H.-J. Werner, P.J. Knowles, 1993

 NUMBER OF ELECTRONS:      28+   27-    SPACE SYMMETRY=1    SPIN SYMMETRY: Doublet 
 CONVERGENCE THRESHOLDS:    1.00E-06 (Density)    1.00E-06 (Energy)
 INTEGRAL THRESHOLDS:       1.00E-11 (Initial)    1.00E-11 (Final)
 MAX. NUMBER OF ITERATIONS:       60
 INTERPOLATION TYPE:            DIIS
 INTERPOLATION STEPS:              2 (START)      1 (STEP)
 LEVEL SHIFTS:                 -0.20 (ALPHA)  -0.20 (BETA) 



 Use fine grid record 1800.2 for energy threshold  1.0D-06
 Molecular orbitals read from record     2206.2  Type=UKS/ALPHA (state 1.1)
 Molecular orbitals read from record     2206.2  Type=UKS/BETA (state 1.1)

 Molecular orbital dump at record        2207.2

 Initial alpha occupation  28
 Initial beta  occupation  27

 Direct Fock-matrix evaluation.        Author: H.-J. Werner (1996)

 Integral Threshold:                  0.1D-10

 ITERATION   DDIFF            GRAD            ENERGY        2-EL.EN.            DIPOLE MOMENTS         DIIS   CPU(IT)  CPU(TOT)
    1      0.000D+00      0.000D+00      -290.30488436    765.214919    0.13525   -0.14321    1.46117    0     15.5     15.5
    2      0.922D-03      0.387D-03      -290.30909695    765.532350    0.13731   -0.14300    1.49362    1     14.4     29.9
    3      0.171D-03      0.639D-04      -290.30934649    765.214813    0.13596   -0.13891    1.50296    2     14.0     43.9
    4      0.932D-04      0.298D-04      -290.30945281    765.256249    0.14028   -0.14393    1.55131    3     13.8     57.6
    5      0.389D-04      0.248D-04      -290.30951710    765.248732    0.13850   -0.13842    1.56390    4     13.5     71.1
    6      0.383D-04      0.167D-04      -290.30958345    765.210867    0.14071   -0.13985    1.60734    5     13.4     84.5
    7      0.652D-04      0.118D-04      -290.30967717    765.208210    0.14300   -0.13982    1.68074    6     13.6     98.1
    8      0.103D-03      0.851D-05      -290.30975708    765.158098    0.14811   -0.14021    1.81334    7     13.8    111.9
    9      0.382D-04      0.471D-05      -290.30976563    765.148741    0.14869   -0.14027    1.85806    8     13.4    125.3
   10      0.944D-05      0.187D-05      -290.30976668    765.150086    0.14886   -0.14069    1.86381    9     12.6    137.9
   11      0.255D-05      0.139D-05      -290.30976711    765.148855    0.14892   -0.14073    1.86671    9     12.0    149.9
   12      0.530D-05      0.920D-06      -290.30976769    765.146225    0.14933   -0.14093    1.87513    9     12.3    162.2
   13      0.335D-05      0.661D-06      -290.30976797    765.145022    0.14948   -0.14107    1.87998    9     12.0    174.2
   14      0.121D-05      0.388D-06      -290.30976805    765.144761    0.14959   -0.14110    1.88177    9     11.7    185.9
   15      0.765D-06      0.275D-06      -290.30976809    765.144548    0.14961   -0.14112    1.88268    9     11.5    197.4
   16      0.277D-06      0.174D-06      -290.30976810    765.144456    0.14959   -0.14107    1.88244    9     11.1    208.5

 Final alpha occupancy:  28
 Final beta  occupancy:  27

 !UKS STATE  1.1 Energy              -290.309768104412
 Nuclear energy                       253.56923437
 One-electron energy                 -891.29815533
 Two-electron energy                  382.57222804
 Density functional                   -35.15307519     B88=-41.77870525 DIRAC=-37.52836599 LYP= -1.75128350 VWN5= -3.42946578
 Virial quotient                       -1.00603096
 !UKS STATE  1.1 Dipole moment          0.14959234    -0.14106694     1.88243683
 Dipole moment /Debye                   0.38020091    -0.35853291     4.78436381

 Orbital energies for positive spin:

         1.1          2.1          3.1          4.1          5.1          6.1          7.1          8.1          9.1         10.1
    -14.357351   -10.263033   -10.230152   -10.192807   -10.181896   -10.168335   -10.167414    -0.936565    -0.830302    -0.752655

        11.1         12.1         13.1         14.1         15.1         16.1         17.1         18.1         19.1         20.1
     -0.692629    -0.639398    -0.556996    -0.482083    -0.475529    -0.462192    -0.442945    -0.425762    -0.398731    -0.391560

        21.1         22.1         23.1         24.1         25.1         26.1         27.1         28.1         29.1         30.1
     -0.383188    -0.378732    -0.368463    -0.368450    -0.350987    -0.346985    -0.341878    -0.278100    -0.043487     0.004174

 Orbital energies for negative spin:

         1.1          2.1          3.1          4.1          5.1          6.1          7.1          8.1          9.1         10.1
    -14.353252   -10.248025   -10.229936   -10.192769   -10.181869   -10.168321   -10.167411    -0.915593    -0.829927    -0.752358

        11.1         12.1         13.1         14.1         15.1         16.1         17.1         18.1         19.1         20.1
     -0.692586    -0.639026    -0.556315    -0.481611    -0.462010    -0.442712    -0.425014    -0.415114    -0.398661    -0.391519

        21.1         22.1         23.1         24.1         25.1         26.1         27.1         28.1         29.1         30.1
     -0.378628    -0.360469    -0.360458    -0.350655    -0.346824    -0.341653    -0.270567    -0.233713    -0.039563     0.023564


 HOMO    -27.1    -0.270567 =      -7.3625eV
 LUMO    -28.1    -0.233713 =      -6.3597eV
 LUMO-HOMO         0.036854 =       1.0028eV

 EXPECTATION VALUE OF S**2:             0.75832556

 Occupation number threshold for pseudo-canonical orbitals: 1.9990 (occupied), 0.0010 (virtual)

 Number of pseudo-canonical occupied orbitals per symmetry:   24
 Number of active natural orbitals per symmetry:               7

 Natural orbitals saved to record    2207.2 (Orbital set 3)

 Orbital spaces for UNO-CAS (Min. occupation: 0.020  Max. occupation: 1.980):

 Closed:       27
 Active:        1


 **********************************************************************************************************************************
 DATASETS  * FILE   NREC   LENGTH (MB)   RECORD NAMES
              1      19       33.38       500      610      700      900      950      970     1001      129      960     1100   
                                          VAR    BASINP    GEOM    SYMINP    ZMAT    AOBASIS   BASIS     P2S    ABASIS      S 
                                         1400     1410     1200     1210     1080     1600     1650     1700     1800   
                                           T        V       H0       H01     AOSYM     SMH    MOLCAS    OPER     GRID   

              2      16       40.21       700     1000      520     1800     2200     2201      520(1)   700(1)  2202      520(2)
                                         GEOM     BASIS   MCVARS    GRID      UKS      UKS    MCVARS    GEOM      UKS    MCVARS    
                                         2203     1001     2204     2205     2206     2207   
                                          UKS     BASIS     UKS      UKS      UKS      UKS  

 PROGRAMS   *        TOTAL   UKS-SCF   UKS-SCF    DF-UKS    DF-UKS       INT    DF-UKS      OPTG    DF-UKS      OPTG    DF-UKS
 CPU TIMES  *      2461.71    208.58     78.40    218.38      7.21      0.20      4.75   1314.29     45.11    578.34      1.07
 REAL TIME  *      2486.48 SEC
 DISK USED  *        73.68 MB (local),      147.36 MB (total)
 SF USED    *        26.05 MB
 GA USED    *         2.22 MB       (max)       2.05 MB       (current)
 **********************************************************************************************************************************

 UB3LYP/TZVP//CF-UKS/SVP energy=   -290.309768104412

         UKS-SCF         UKS-SCF          DF-UKS          DF-UKS          DF-UKS    OPTG(DF-UKS)          DF-UKS    OPTG(DF-UKS)
   -290.30976810   -290.12860679   -290.12887216   -290.10673074   -289.78411390   -289.81334416   -289.81172118   -289.78535841
 **********************************************************************************************************************************
 Molpro calculation terminated with 2 warning(s)
