
 Primary working directories    : /mnt/storage/home/lb17101/scratch/1377729/molpro.oUCDptCNmN
 Secondary working directories  : /mnt/storage/home/lb17101/scratch/1377729/molpro.oUCDptCNmN
 Wavefunction directory         : /mnt/storage/home/lb17101/optimizations/11/
 Main file repository           : /mnt/storage/home/lb17101/optimizations/11/

 id        : simonbennie

 Nodes                   nprocs
 compute075.bc4.acrc.priv    1

 Using customized tuning parameters: mindgm=1; mindgv=20; mindgc=4; mindgr=1; noblas=0; minvec=7
 default implementation of scratch files=df  


 Variables initialized (924), CPU time= 0.00 sec
 memory,536,m
 
 geomtyp=xyz
 
 nosym
 noorient
 gdirect
 angstrom
 
 geometry=input.xyz
 Including file /mnt/storage/home/lb17101/optimizations/11/input.xyz
 
 set,charge=0
 
 basis=svp
 df-hf
 {cf-uks,pbe;}
 {optg,method=slrf,maxiter=50;
 constraint,1.000,angstrom,bond,atoms=[H11,C6]
 constraint,1.200,angstrom,bond,atoms=[H11,C17]
 constraint,180,deg,angle,atoms=[C6,H11,C17]
 {slopt;}}
 {cf-uks,pbe0;}
 {optg,method=slrf,maxiter=20;
 constraint,1.000,angstrom,bond,atoms=[H11,C6]
 constraint,1.200,angstrom,bond,atoms=[H11,C17]
 constraint,180,deg,angle,atoms=[C6,H11,C17]
 {slopt;}}
 {cf-uks,pbe;}
 basis=tzvp
 {cf-uks,pbe;}
 {cf-uks,pbe0;}
 {uks,pbe0;}
 {uks,b3lyp;}
 Commands  initialized (760), CPU time= 0.00 sec, 616 directives.
 Default parameters read. Elapsed time= 0.04 sec

 Checking input...
 Passed
1


                                         ***  PROGRAM SYSTEM MOLPRO  ***
                                       Copyright, TTI GmbH Stuttgart, 2015
                                    Version 2018.1 linked Oct 16 2018 14:32:03


 **********************************************************************************************************************************
 LABEL *                                                                                 
  64 bit serial version                                                                  DATE: 09-Nov-18          TIME: 15:54:31  
 **********************************************************************************************************************************

 SHA1:             d673ad554fd0a1ae99daa449513f8b88cca0f763
 **********************************************************************************************************************************
 SETTING GEOMTYP        =    XYZ

 Variable memory set to  536000000 words,  buffer space 

 ZSYMEL=NOSYM
 ZUNIT=ANG

 SETTING CHARGE         =     0.00000000D+00                                  
 SETTING BASIS          =    SVP


 Recomputing integrals since basis changed


 Using spherical harmonics

 Library entry C      S def2-SVP             selected for orbital group  1
 Library entry C      P def2-SVP             selected for orbital group  1
 Library entry C      D def2-SVP             selected for orbital group  1
 Library entry H      S def2-SVP             selected for orbital group  2
 Library entry H      P def2-SVP             selected for orbital group  2
 Library entry N      S def2-SVP             selected for orbital group  8
 Library entry N      P def2-SVP             selected for orbital group  8
 Library entry N      D def2-SVP             selected for orbital group  8


 PROGRAM * SEWARD (Integral evaluation for generally contracted gaussian basis sets)     Author: Roland Lindh, 1990

 Geometry written to block  1 of record 700


 Point group  C1  



 ATOMIC COORDINATES

 NR  ATOM    CHARGE       X              Y              Z

   1  C0      6.00  -15.623034457    4.456181068   -0.744963817
   2  C1      6.00  -12.754161497    4.471148812   -0.270646497
   3  H2      1.00  -16.050724045    4.674077832   -2.791508804
   4  H3      1.00  -16.572723553    6.025924871    0.266890858
   5  H4      1.00  -16.494424527    2.659733771   -0.105170181
   6  C5      6.00  -11.570266300    7.002201743   -1.086802570
   7  C6      6.00  -11.492126434    2.196457185   -1.416610084
   8  H7      1.00  -12.474168993    4.333386856    1.830631913
   9  H8      1.00  -11.763135953    7.285372778   -3.155238719
  10  H9      1.00   -9.533873707    7.111716548   -0.612814725
  11  H10     1.00  -12.520738188    8.609141184   -0.135413196
  12  H11     1.00  -13.007317023    2.744903906   -6.851534638
  13  H12     1.00  -12.665161079    0.480079678   -1.598889749
  14  C13     6.00   -8.691617909    1.890885500   -1.553555080
  15  H14     1.00   -7.738367918    3.530069106   -2.457983525
  16  H15     1.00   -8.137223237    0.166611698   -2.602303197
  17  H16     1.00   -7.827415309    1.731359762    0.371967837
  18  C17     6.00  -13.531628172    3.097804943   -8.831810575
  19  N18     7.00  -14.089116397    3.480071945  -10.933086168

 Bond lengths in Bohr (Angstrom)

 1-2  2.907857117  1-3  2.102080819  1-4  2.095198050  1-5  2.096635267  2-6  2.911004554
     ( 1.538771719)     ( 1.112373265)     ( 1.108731061)     ( 1.109491603)     ( 1.540437271)

  2- 7  2.842566981   2- 8  2.124322271   6- 9  2.096619336   6-10  2.093693570   6-11  2.095421895
       ( 1.504221667)       ( 1.124142935)       ( 1.109483172)       ( 1.107934924)       ( 1.108849514)

  7-13  2.086908695   7-14  2.820456698  12-18  2.078685669  14-15  2.100856790  14-16  2.092927664
       ( 1.104344523)       ( 1.492521409)       ( 1.099993085)       ( 1.111725537)       ( 1.107529624)

 14-17  2.116585245  18-19  2.207324240
       ( 1.120048677)       ( 1.168065685)

 Bond angles

  1-2-6  111.09939358   1-2-7  111.60137794   1-2-8  106.92075244   2-1-3  111.03911382

  2- 1- 4  111.38057269   2- 1- 5  111.38769550   2- 6- 9  110.89278884   2- 6-10  112.18344479

  2- 6-11  110.79429451   2- 7-13  116.34663244   2- 7-14  123.16888649   3- 1- 4  107.47545775

  3-1-5  107.53847579   4-1-5  107.82953177   6-2-7  113.71478466   6-2-8  106.26673734

  7- 2- 8  106.75971964   7-14-15  112.76201543   7-14-16  112.12347607   7-14-17  111.67904931

  9- 6-10  107.80351523   9- 6-11  107.61546168  10- 6-11  107.35429488  12-18-19  179.79963244

 13- 7-14  117.69536096  15-14-16  107.87231350  15-14-17  105.37802152  16-14-17  106.59532687

 NUCLEAR CHARGE:                   55
 NUMBER OF PRIMITIVE AOS:         259
 NUMBER OF SYMMETRY AOS:          252
 NUMBER OF CONTRACTIONS:          158   (  158A   )
 NUMBER OF CORE ORBITALS:           7   (    7A   )
 NUMBER OF VALENCE ORBITALS:       40   (   40A   )


 NUCLEAR REPULSION ENERGY  266.36079263


 Eigenvalues of metric

         1 0.186E-02 0.367E-02 0.455E-02 0.556E-02 0.740E-02 0.190E-01 0.201E-01 0.227E-01


 OPERATOR DM      FOR CENTER  0  COORDINATES:    0.000000    0.000000    0.000000


 **********************************************************************************************************************************
 DATASETS  * FILE   NREC   LENGTH (MB)   RECORD NAMES
              1      18       31.21       500      610      700      900      950      970     1000      129      960     1100   
                                          VAR    BASINP    GEOM    SYMINP    ZMAT    AOBASIS   BASIS     P2S    ABASIS      S 
                                         1400     1410     1200     1210     1080     1600     1650     1700   
                                           T        V       H0       H01     AOSYM     SMH    MOLCAS    OPER   

 PROGRAMS   *        TOTAL       INT
 CPU TIMES  *         0.42      0.30
 REAL TIME  *         0.79 SEC
 DISK USED  *        31.83 MB
 **********************************************************************************************************************************


 PROGRAM * RHF-SCF (OPEN SHELL)       Authors: W. Meyer, H.-J. Werner


 NUMBER OF ELECTRONS:      28+   27-    SPACE SYMMETRY=1    SPIN SYMMETRY: Doublet 
 CONVERGENCE THRESHOLDS:    1.00E-06 (Density)    1.00E-07 (Energy)
 INTEGRAL THRESHOLDS:       1.00E-11 (Initial)    1.00E-11 (Final)
 MAX. NUMBER OF ITERATIONS:       60
 INTERPOLATION TYPE:            DIIS
 INTERPOLATION STEPS:              2 (START)      1 (STEP)
 LEVEL SHIFTS:                 -0.60 (CLOSED) -0.30 (OPEN) 




 Basis set DEF2-SVP/JKFIT generated.     Number of basis functions:   560 

 Orbital guess generated from atomic densities. Full valence occupancy:   28
 Using density fitting in orbital guess

 Coulomb and exchange fitting
 Thresholds for fitting:       THRAO_COUL= 1.0D-14    THRAO_EXCH= 1.0D-12    THRMO= 1.0D-11    THRPROD= 1.0D-11    THRASM= 1.0D-11
                               THR2HLF=    1.0D-11

 Molecular orbital dump at record        2100.2

 Initial alpha occupancy:  28
 Initial beta  occupancy:  27
 Wave function symmetry:    1

 ITERATION   DDIFF            GRAD            ENERGY        2-EL.EN.            DIPOLE MOMENTS         DIIS   CPU(IT)  CPU(TOT)  ORB.
    1      0.000D+00      0.000D+00      -288.25515683    724.827716    0.67741   -0.23183    2.05219    0      0.7      1.5     start
    2      0.000D+00      0.406D-02      -288.33519995    721.922907    0.46565   -0.17005    1.54480    1      0.7      2.2     diag,B
    3      0.309D-02      0.158D-02      -288.35112100    722.030083    0.44885   -0.19605    1.57807    2      0.7      2.8     diag,B
    4      0.154D-02      0.759D-03      -288.35755801    721.990573    0.41407   -0.19475    1.51512    3      0.7      3.5     diag,B
    5      0.137D-02      0.213D-03      -288.35821314    721.956796    0.40924   -0.19627    1.50450    4      0.7      4.2     diag,B
    6      0.557D-03      0.747D-04      -288.35830788    721.929508    0.40777   -0.19595    1.49795    5      0.7      4.8     diag,B
    7      0.256D-03      0.223D-04      -288.35831674    721.921956    0.40736   -0.19545    1.49531    6      0.7      5.5     fixocc
    8      0.755D-04      0.734D-05      -288.35831791    721.921394    0.40711   -0.19509    1.49409    7      0.7      6.2     diag,B
    9      0.289D-04      0.264D-05      -288.35831809    721.921643    0.40702   -0.19494    1.49373    8      0.7      6.9     diag,B
   10      0.135D-04      0.845D-06      -288.35831811    721.921787    0.40701   -0.19490    1.49369    9      0.7      7.5     orth
   11      0.451D-05      0.308D-06      -288.35831812    721.921789    0.40701   -0.19489    1.49370    9      0.7      8.2     diag,B
   12      0.165D-05      0.106D-06      -288.35831812    721.921778    0.40701   -0.19489    1.49371    9      0.7      8.9     diag,B
   13      0.556D-06      0.365D-07      -288.35831812    721.921773    0.40701   -0.19489    1.49371    0      0.7      9.5     orth

 Final alpha occupancy:  28
 Final beta  occupancy:  27

 !RHF STATE  1.1 Energy              -288.358318116309
 Nuclear energy                       266.36079263
 One-electron energy                 -915.67999731
 Two-electron energy                  360.96088657
 Virial quotient                       -1.00689617
 !RHF STATE  1.1 Dipole moment          0.40700983    -0.19488966     1.49370591
 Dipole moment /Debye                   1.03444804    -0.49532765     3.79637307

 Orbital energies:

         1.1          2.1          3.1          4.1          5.1          6.1          7.1          8.1          9.1         10.1
    -15.598835   -11.299230   -11.247100   -11.242892   -11.238344   -11.236433   -11.235547    -1.211249    -1.086418    -0.990694

        11.1         12.1         13.1         14.1         15.1         16.1         17.1         18.1         19.1         20.1
     -0.926015    -0.848804    -0.786408    -0.740048    -0.636462    -0.618646    -0.596091    -0.571540    -0.562510    -0.548054

        21.1         22.1         23.1         24.1         25.1         26.1         27.1         28.1         29.1         30.1
     -0.539342    -0.524043    -0.487885    -0.486673    -0.485850    -0.480671    -0.474620    -0.357411     0.150175     0.166889


 HOMO     28.1    -0.357411 =      -9.7256eV
 LUMO     29.1     0.150175 =       4.0865eV
 LUMO-HOMO         0.507586 =      13.8121eV


 **********************************************************************************************************************************
 DATASETS  * FILE   NREC   LENGTH (MB)   RECORD NAMES
              1      18       31.21       500      610      700      900      950      970     1000      129      960     1100   
                                          VAR    BASINP    GEOM    SYMINP    ZMAT    AOBASIS   BASIS     P2S    ABASIS      S 
                                         1400     1410     1200     1210     1080     1600     1650     1700   
                                           T        V       H0       H01     AOSYM     SMH    MOLCAS    OPER   

              2       4        3.88       700     1000      520     2100   
                                         GEOM     BASIS   MCVARS     RHF  

 PROGRAMS   *        TOTAL     DF-HF       INT
 CPU TIMES  *         9.97      9.55      0.30
 REAL TIME  *        10.61 SEC
 DISK USED  *        68.27 MB
 **********************************************************************************************************************************

 Density functional group PBE=PBEX+PBEC
 Functional: PBEX(Automatically generated (new) PBEX)                          Gradient terms: 1
 Functional: PBEC(Automatically generated (new) PBEC)                          Gradient terms: 1
 Use libxcgrid:  F
 Use grid at  1800.2

 Functional: PBEX                      Factor:  1.0000
 Functional: PBEC                      Factor:  1.0000

 Generated new metagrid on record  1800.2 with target accuracy 1.0D-06 and 63368 points in CPU time    1.2
 Computed new grid on record 1800.1 in CPU time    1.3
  129907 words reserved for DFT integration

 PROGRAM * UKS-SCF (Unrestricted Kohn-Sham)     Authors: W. Meyer, H.-J. Werner, P.J. Knowles, 1993

 NUMBER OF ELECTRONS:      28+   27-    SPACE SYMMETRY=1    SPIN SYMMETRY: Doublet 
 CONVERGENCE THRESHOLDS:    1.00E-06 (Density)    1.00E-06 (Energy)
 INTEGRAL THRESHOLDS:       1.00E-11 (Initial)    1.00E-11 (Final)
 MAX. NUMBER OF ITERATIONS:       60
 INTERPOLATION TYPE:            DIIS
 INTERPOLATION STEPS:              2 (START)      1 (STEP)
 LEVEL SHIFTS:                 -0.20 (ALPHA)  -0.20 (BETA) 



 Use fine grid record 1800.2 for energy threshold  1.0D-06

 Basis set DEF2-SVP/JFIT generated.      Number of basis functions:   475 
 Coulomb fitting
 Screening thresholds:    THRAO_COUL= 1.0D-14    THRAO= 1.0D-12    THROV= 1.0D-12

 Reserved 6 MW to cache 100.0% of significant integrals. CPU: 0.3 sec

 Molecular orbitals read from record     2100.2  Type=RHF/CANONICAL (state 1.1)

 Molecular orbital dump at record        2200.2

 Initial alpha occupation  28
 Initial beta  occupation  27

 ITERATION    DDIFF          GRAD             ENERGY        2-EL.EN.            DIPOLE MOMENTS         DIIS  CPU(IT) CPU(TOT)
    1      0.000D+00      0.000D+00      -289.86338031    805.399339    0.40701   -0.19489    1.49371    0      0.5      0.8
    2      0.410D-02      0.216D-02      -289.90464828    808.460075    0.39267   -0.15660    1.39652    1      0.5      1.4
    3      0.138D-02      0.440D-03      -289.90832009    807.092031    0.39515   -0.15013    1.37627    2      0.5      1.9
    4      0.736D-03      0.193D-03      -289.90928625    807.607657    0.39620   -0.14593    1.35977    3      0.5      2.4
    5      0.317D-03      0.799D-04      -289.90941664    807.540764    0.41065   -0.15123    1.40292    4      0.5      3.0
    6      0.139D-03      0.852D-04      -289.90951198    807.475276    0.40415   -0.14524    1.37617    5      0.5      3.5
    7      0.877D-04      0.210D-04      -289.90952764    807.487587    0.40677   -0.14716    1.38437    6      0.5      4.1
    8      0.322D-04      0.767D-05      -289.90952980    807.489113    0.40708   -0.14633    1.38485    7      0.5      4.6
    9      0.137D-04      0.280D-05      -289.90953007    807.489415    0.40728   -0.14652    1.38516    8      0.5      5.1
   10      0.587D-05      0.126D-05      -289.90953012    807.488575    0.40728   -0.14649    1.38546    8      0.5      5.7
   11      0.209D-05      0.288D-06      -289.90953013    807.488592    0.40730   -0.14650    1.38548    8      0.5      6.2
   12      0.548D-06      0.101D-06      -289.90953013    807.488657    0.40729   -0.14651    1.38548    8      0.5      6.8
   13      0.246D-06      0.576D-07      -289.90953013    807.488604    0.40729   -0.14650    1.38548    7      0.5      7.3

 Final alpha occupancy:  28
 Final beta  occupancy:  27

 !UKS STATE  1.1 Energy              -289.909530127504
 Nuclear energy                       266.36079263
 One-electron energy                 -916.74881357
 Two-electron energy                  403.74430205
 Density functional                   -43.26581123     PBEX=-41.50719124 PBEC= -1.75861999
 Virial quotient                       -1.01213296
 !UKS STATE  1.1 Dipole moment          0.40729348    -0.14650224     1.38548143
 Dipole moment /Debye                   1.03516897    -0.37234717     3.52131190

 Orbital energies for positive spin:

         1.1          2.1          3.1          4.1          5.1          6.1          7.1          8.1          9.1         10.1
    -14.008857    -9.945506    -9.916599    -9.916383    -9.906908    -9.899206    -9.898927    -0.818171    -0.739444    -0.668274

        11.1         12.1         13.1         14.1         15.1         16.1         17.1         18.1         19.1         20.1
     -0.615751    -0.564916    -0.528204    -0.490481    -0.422246    -0.407436    -0.390805    -0.370654    -0.349641    -0.341960

        21.1         22.1         23.1         24.1         25.1         26.1         27.1         28.1         29.1         30.1
     -0.329817    -0.316695    -0.315015    -0.314832    -0.306718    -0.300985    -0.295007    -0.166837    -0.022049    -0.019550

 Orbital energies for negative spin:

         1.1          2.1          3.1          4.1          5.1          6.1          7.1          8.1          9.1         10.1
    -14.008855    -9.945347    -9.917068    -9.907631    -9.903915    -9.898794    -9.898759    -0.818097    -0.731702    -0.661270

        11.1         12.1         13.1         14.1         15.1         16.1         17.1         18.1         19.1         20.1
     -0.614885    -0.556877    -0.527454    -0.480492    -0.416740    -0.404752    -0.386556    -0.362132    -0.348957    -0.340894

        21.1         22.1         23.1         24.1         25.1         26.1         27.1         28.1         29.1         30.1
     -0.326922    -0.316607    -0.314891    -0.314738    -0.303315    -0.298871    -0.290429    -0.095617    -0.021851    -0.019360


 HOMO     28.1    -0.166837 =      -4.5399eV
 LUMO    -28.1    -0.095617 =      -2.6019eV
 LUMO-HOMO         0.071221 =       1.9380eV

 EXPECTATION VALUE OF S**2:             0.75333059

 Occupation number threshold for pseudo-canonical orbitals: 1.9990 (occupied), 0.0010 (virtual)

 Number of pseudo-canonical occupied orbitals per symmetry:   27
 Number of active natural orbitals per symmetry:               1

 Natural orbitals saved to record    2200.2 (Orbital set 3)

 Orbital spaces for UNO-CAS (Min. occupation: 0.020  Max. occupation: 1.980):

 Closed:       27
 Active:        1


 **********************************************************************************************************************************
 DATASETS  * FILE   NREC   LENGTH (MB)   RECORD NAMES
              1      19       33.24       500      610      700      900      950      970     1000      129      960     1100   
                                          VAR    BASINP    GEOM    SYMINP    ZMAT    AOBASIS   BASIS     P2S    ABASIS      S 
                                         1400     1410     1200     1210     1080     1600     1650     1700     1800   
                                           T        V       H0       H01     AOSYM     SMH    MOLCAS    OPER     GRID   

              2       6        7.61       700     1000      520     2100     1800     2200   
                                         GEOM     BASIS   MCVARS     RHF     GRID      UKS  

 PROGRAMS   *        TOTAL    DF-UKS     DF-HF       INT
 CPU TIMES  *        18.66      8.69      9.55      0.30
 REAL TIME  *        19.42 SEC
 DISK USED  *        68.27 MB
 **********************************************************************************************************************************


 PROGRAM * OPT (Geometry optimization)     Authors: F. Eckert and H.-J. Werner


 BFGS update of hessian


********** USER DEFINED INT/FIX/CONSTRAINTS ****************

List of primitive internal coordinates

     N      Name     Type   Natoms   Atom list

     1    Bo0001     Bond        2      H11  C6  
     2    Bo0002     Bond        2      H11  C17 
     3    An0001     Angle       3      C6   H11  C17 

List of user defined internal/fixed coordinates and constraints

- - - - - - - - - - - - - - - - - - - - - - - - - - - - - - - - - 
    N      Name   Type      Pname     Coeff       Value   Unit
- - - - - - - - - - - - - - - - - - - - - - - - - - - - - - - - - 
    1    Cns001    Con     Bo0001     1.000     1.00000 Angstrom
- - - - - - - - - - - - - - - - - - - - - - - - - - - - - - - - - 
    2    Cns002    Con     Bo0002     1.000     1.20000 Angstrom
- - - - - - - - - - - - - - - - - - - - - - - - - - - - - - - - - 
    3    Cns003    Con     An0001     1.000   180.00000   Degree
- - - - - - - - - - - - - - - - - - - - - - - - - - - - - - - - - 


******************************************************************



 *** Long output written to logfile /mnt/storage/home/lb17101/optimizations/11/11_1.00_1.20.log ***


 Geometry optimization using default procedure for command CF-UKS-SCF

 Geometry written to block  1 of record 700

 SLAPAF optimizer by R. Lindh and Ignacio F. Galvan entered

 Constraints section
ConstraintsConstraintsConstraintsConstraintsConstraintsConstraintsConstraintsConstraintsConstraintsConstraints
ConstraintsConstraintsConstraintsConstraintsConstraintsConstraintsConstraintsConstraintsConstraintsConstraints
Constraints                                                                                        Constraints
Constraints                                 C O N S T R A I N T S                                  Constraints
Constraints                                                                                        Constraints

************************************************************************************************************************
BO0001 = BOND       H11   C6
BO0002 = BOND       H11   C17
AN0001 = ANGLE      C6    H11   C17
VALUES
BO0001 =      1.00000000 ANGSTROM
BO0002 =      1.20000000 ANGSTROM
AN0001 =    180.00000000 DEGREE
************************************************************************************************************************


 *************************************************************
 * Values of the primitive constraints                       *
 *************************************************************
 BO0001   : Bond Length=  2.999786 / Angstrom  5.668774 / bohr
 BO0002   : Bond Length=  1.099993 / Angstrom  2.078686 / bohr
 AN0001   : Angle=      175.7129   / Degree    3.066769 / rad

 *******************************************
 * Values of the constraints   / au or rad *
 *******************************************
   Label        C         C0
 Cns001      5.668774  1.889726
 Cns002      2.078686  2.267671
 Cns003      3.066769  3.141593


 ITER.   ENERGY(OLD)    ENERGY(NEW)      DE          GRADMAX     GRADNORM    GRADRMS     STEPMAX     STEPLEN     STEPRMS   CPU-time
   1  -289.90953013  -289.90798913     0.00154100  0.00531371  0.00802366  0.00106276  0.50627140  1.12797672  0.01978907     10.45

 Constraints section
ConstraintsConstraintsConstraintsConstraintsConstraintsConstraintsConstraintsConstraintsConstraintsConstraints
ConstraintsConstraintsConstraintsConstraintsConstraintsConstraintsConstraintsConstraintsConstraintsConstraints
Constraints                                                                                        Constraints
Constraints                                 C O N S T R A I N T S                                  Constraints
Constraints                                                                                        Constraints

************************************************************************************************************************
BO0001 = BOND       H11   C6
BO0002 = BOND       H11   C17
AN0001 = ANGLE      C6    H11   C17
VALUES
BO0001 =      1.00000000 ANGSTROM
BO0002 =      1.20000000 ANGSTROM
AN0001 =    180.00000000 DEGREE
************************************************************************************************************************


 *************************************************************
 * Values of the primitive constraints                       *
 *************************************************************
 BO0001   : Bond Length=  2.961025 / Angstrom  5.595526 / bohr
 BO0002   : Bond Length=  1.101934 / Angstrom  2.082353 / bohr
 AN0001   : Angle=      175.7952   / Degree    3.068205 / rad

 *******************************************
 * Values of the constraints   / au or rad *
 *******************************************
   Label        C         C0
 Cns001      5.595526  1.889726
 Cns002      2.082353  2.267671
 Cns003      3.068205  3.141593

   2  -289.90798913  -289.90886530    -0.00087616  0.01413630  0.03048510  0.00403785  0.24314867  0.66966010  0.01174842     20.33

 Constraints section
ConstraintsConstraintsConstraintsConstraintsConstraintsConstraintsConstraintsConstraintsConstraintsConstraints
ConstraintsConstraintsConstraintsConstraintsConstraintsConstraintsConstraintsConstraintsConstraintsConstraints
Constraints                                                                                        Constraints
Constraints                                 C O N S T R A I N T S                                  Constraints
Constraints                                                                                        Constraints

************************************************************************************************************************
BO0001 = BOND       H11   C6
BO0002 = BOND       H11   C17
AN0001 = ANGLE      C6    H11   C17
VALUES
BO0001 =      1.00000000 ANGSTROM
BO0002 =      1.20000000 ANGSTROM
AN0001 =    180.00000000 DEGREE
************************************************************************************************************************


 *************************************************************
 * Values of the primitive constraints                       *
 *************************************************************
 BO0001   : Bond Length=  2.884663 / Angstrom  5.451223 / bohr
 BO0002   : Bond Length=  1.105748 / Angstrom  2.089560 / bohr
 AN0001   : Angle=      175.9649   / Degree    3.071166 / rad

 *******************************************
 * Values of the constraints   / au or rad *
 *******************************************
   Label        C         C0
 Cns001      5.451223  1.889726
 Cns002      2.089560  2.267671
 Cns003      3.071166  3.141593

   3  -289.90886530  -289.90690591     0.00195938  0.01118202  0.02758711  0.00365400  0.19196646  0.56948674  0.00999100     30.35

 Constraints section
ConstraintsConstraintsConstraintsConstraintsConstraintsConstraintsConstraintsConstraintsConstraintsConstraints
ConstraintsConstraintsConstraintsConstraintsConstraintsConstraintsConstraintsConstraintsConstraintsConstraints
Constraints                                                                                        Constraints
Constraints                                 C O N S T R A I N T S                                  Constraints
Constraints                                                                                        Constraints

************************************************************************************************************************
BO0001 = BOND       H11   C6
BO0002 = BOND       H11   C17
AN0001 = ANGLE      C6    H11   C17
VALUES
BO0001 =      1.00000000 ANGSTROM
BO0002 =      1.20000000 ANGSTROM
AN0001 =    180.00000000 DEGREE
************************************************************************************************************************


 *************************************************************
 * Values of the primitive constraints                       *
 *************************************************************
 BO0001   : Bond Length=  2.731338 / Angstrom  5.161480 / bohr
 BO0002   : Bond Length=  1.113416 / Angstrom  2.104051 / bohr
 AN0001   : Angle=      176.2320   / Degree    3.075829 / rad

 *******************************************
 * Values of the constraints   / au or rad *
 *******************************************
   Label        C         C0
 Cns001      5.161480  1.889726
 Cns002      2.104051  2.267671
 Cns003      3.075829  3.141593

   4  -289.90690591  -289.90761939    -0.00071348  0.02628417  0.05309535  0.00703265  0.14722807  0.44329374  0.00777708     40.39

 Constraints section
ConstraintsConstraintsConstraintsConstraintsConstraintsConstraintsConstraintsConstraintsConstraintsConstraints
ConstraintsConstraintsConstraintsConstraintsConstraintsConstraintsConstraintsConstraintsConstraintsConstraints
Constraints                                                                                        Constraints
Constraints                                 C O N S T R A I N T S                                  Constraints
Constraints                                                                                        Constraints

************************************************************************************************************************
BO0001 = BOND       H11   C6
BO0002 = BOND       H11   C17
AN0001 = ANGLE      C6    H11   C17
VALUES
BO0001 =      1.00000000 ANGSTROM
BO0002 =      1.20000000 ANGSTROM
AN0001 =    180.00000000 DEGREE
************************************************************************************************************************


 *************************************************************
 * Values of the primitive constraints                       *
 *************************************************************
 BO0001   : Bond Length=  2.660351 / Angstrom  5.027334 / bohr
 BO0002   : Bond Length=  1.116963 / Angstrom  2.110755 / bohr
 AN0001   : Angle=      176.3782   / Degree    3.078380 / rad

 *******************************************
 * Values of the constraints   / au or rad *
 *******************************************
   Label        C         C0
 Cns001      5.027334  1.889726
 Cns002      2.110755  2.267671
 Cns003      3.078380  3.141593

   5  -289.90761939  -289.90755430     0.00006509  0.02279949  0.05087069  0.00673799  0.10282133  0.20697264  0.00363110     49.89

 Constraints section
ConstraintsConstraintsConstraintsConstraintsConstraintsConstraintsConstraintsConstraintsConstraintsConstraints
ConstraintsConstraintsConstraintsConstraintsConstraintsConstraintsConstraintsConstraintsConstraintsConstraints
Constraints                                                                                        Constraints
Constraints                                 C O N S T R A I N T S                                  Constraints
Constraints                                                                                        Constraints

************************************************************************************************************************
BO0001 = BOND       H11   C6
BO0002 = BOND       H11   C17
AN0001 = ANGLE      C6    H11   C17
VALUES
BO0001 =      1.00000000 ANGSTROM
BO0002 =      1.20000000 ANGSTROM
AN0001 =    180.00000000 DEGREE
************************************************************************************************************************


 *************************************************************
 * Values of the primitive constraints                       *
 *************************************************************
 BO0001   : Bond Length=  2.647763 / Angstrom  5.003547 / bohr
 BO0002   : Bond Length=  1.117593 / Angstrom  2.111944 / bohr
 AN0001   : Angle=      176.4041   / Degree    3.078832 / rad

 *******************************************
 * Values of the constraints   / au or rad *
 *******************************************
   Label        C         C0
 Cns001      5.003547  1.889726
 Cns002      2.111944  2.267671
 Cns003      3.078832  3.141593

   6  -289.90755430  -289.89197855     0.01557576  0.02298493  0.05152874  0.00682515  0.22414816  0.75103661  0.01317608     60.58

 Constraints section
ConstraintsConstraintsConstraintsConstraintsConstraintsConstraintsConstraintsConstraintsConstraintsConstraints
ConstraintsConstraintsConstraintsConstraintsConstraintsConstraintsConstraintsConstraintsConstraintsConstraints
Constraints                                                                                        Constraints
Constraints                                 C O N S T R A I N T S                                  Constraints
Constraints                                                                                        Constraints

************************************************************************************************************************
BO0001 = BOND       H11   C6
BO0002 = BOND       H11   C17
AN0001 = ANGLE      C6    H11   C17
VALUES
BO0001 =      1.00000000 ANGSTROM
BO0002 =      1.20000000 ANGSTROM
AN0001 =    180.00000000 DEGREE
************************************************************************************************************************


 *************************************************************
 * Values of the primitive constraints                       *
 *************************************************************
 BO0001   : Bond Length=  2.575789 / Angstrom  4.867535 / bohr
 BO0002   : Bond Length=  1.121147 / Angstrom  2.118660 / bohr
 AN0001   : Angle=      175.9228   / Degree    3.070432 / rad

 *******************************************
 * Values of the constraints   / au or rad *
 *******************************************
   Label        C         C0
 Cns001      4.867535  1.889726
 Cns002      2.118660  2.267671
 Cns003      3.070432  3.141593

   7  -289.89197855  -289.90985701    -0.01787847  0.07880470  0.12803605  0.01695879  0.34341116  0.97753967  0.01714982     71.27

 Constraints section
ConstraintsConstraintsConstraintsConstraintsConstraintsConstraintsConstraintsConstraintsConstraintsConstraints
ConstraintsConstraintsConstraintsConstraintsConstraintsConstraintsConstraintsConstraintsConstraintsConstraints
Constraints                                                                                        Constraints
Constraints                                 C O N S T R A I N T S                                  Constraints
Constraints                                                                                        Constraints

************************************************************************************************************************
BO0001 = BOND       H11   C6
BO0002 = BOND       H11   C17
AN0001 = ANGLE      C6    H11   C17
VALUES
BO0001 =      1.00000000 ANGSTROM
BO0002 =      1.20000000 ANGSTROM
AN0001 =    180.00000000 DEGREE
************************************************************************************************************************


 *************************************************************
 * Values of the primitive constraints                       *
 *************************************************************
 BO0001   : Bond Length=  2.376213 / Angstrom  4.490392 / bohr
 BO0002   : Bond Length=  1.131134 / Angstrom  2.137533 / bohr
 AN0001   : Angle=      176.3990   / Degree    3.078743 / rad

 *******************************************
 * Values of the constraints   / au or rad *
 *******************************************
   Label        C         C0
 Cns001      4.490392  1.889726
 Cns002      2.137533  2.267671
 Cns003      3.078743  3.141593

   8  -289.90985701  -289.91028401    -0.00042700  0.02033523  0.03611367  0.00478337  0.23759301  0.65004140  0.01140424     81.51

 Constraints section
ConstraintsConstraintsConstraintsConstraintsConstraintsConstraintsConstraintsConstraintsConstraintsConstraints
ConstraintsConstraintsConstraintsConstraintsConstraintsConstraintsConstraintsConstraintsConstraintsConstraints
Constraints                                                                                        Constraints
Constraints                                 C O N S T R A I N T S                                  Constraints
Constraints                                                                                        Constraints

************************************************************************************************************************
BO0001 = BOND       H11   C6
BO0002 = BOND       H11   C17
AN0001 = ANGLE      C6    H11   C17
VALUES
BO0001 =      1.00000000 ANGSTROM
BO0002 =      1.20000000 ANGSTROM
AN0001 =    180.00000000 DEGREE
************************************************************************************************************************


 *************************************************************
 * Values of the primitive constraints                       *
 *************************************************************
 BO0001   : Bond Length=  2.219799 / Angstrom  4.194811 / bohr
 BO0002   : Bond Length=  1.138961 / Angstrom  2.152324 / bohr
 AN0001   : Angle=      176.7638   / Degree    3.085111 / rad

 *******************************************
 * Values of the constraints   / au or rad *
 *******************************************
   Label        C         C0
 Cns001      4.194811  1.889726
 Cns002      2.152324  2.267671
 Cns003      3.085111  3.141593

   9  -289.91028401  -289.90916140     0.00112261  0.02005185  0.03173113  0.00420289  0.21457025  0.71257149  0.01250125     92.42

 Constraints section
ConstraintsConstraintsConstraintsConstraintsConstraintsConstraintsConstraintsConstraintsConstraintsConstraints
ConstraintsConstraintsConstraintsConstraintsConstraintsConstraintsConstraintsConstraintsConstraintsConstraints
Constraints                                                                                        Constraints
Constraints                                 C O N S T R A I N T S                                  Constraints
Constraints                                                                                        Constraints

************************************************************************************************************************
BO0001 = BOND       H11   C6
BO0002 = BOND       H11   C17
AN0001 = ANGLE      C6    H11   C17
VALUES
BO0001 =      1.00000000 ANGSTROM
BO0002 =      1.20000000 ANGSTROM
AN0001 =    180.00000000 DEGREE
************************************************************************************************************************


 *************************************************************
 * Values of the primitive constraints                       *
 *************************************************************
 BO0001   : Bond Length=  2.078683 / Angstrom  3.928142 / bohr
 BO0002   : Bond Length=  1.146022 / Angstrom  2.165668 / bohr
 AN0001   : Angle=      176.9911   / Degree    3.089077 / rad

 *******************************************
 * Values of the constraints   / au or rad *
 *******************************************
   Label        C         C0
 Cns001      3.928142  1.889726
 Cns002      2.165668  2.267671
 Cns003      3.089077  3.141593

  10  -289.90916140  -289.90524377     0.00391764  0.01984872  0.03356166  0.00444535  0.25204709  0.73221088  0.01284580    103.18

 Constraints section
ConstraintsConstraintsConstraintsConstraintsConstraintsConstraintsConstraintsConstraintsConstraintsConstraints
ConstraintsConstraintsConstraintsConstraintsConstraintsConstraintsConstraintsConstraintsConstraintsConstraints
Constraints                                                                                        Constraints
Constraints                                 C O N S T R A I N T S                                  Constraints
Constraints                                                                                        Constraints

************************************************************************************************************************
BO0001 = BOND       H11   C6
BO0002 = BOND       H11   C17
AN0001 = ANGLE      C6    H11   C17
VALUES
BO0001 =      1.00000000 ANGSTROM
BO0002 =      1.20000000 ANGSTROM
AN0001 =    180.00000000 DEGREE
************************************************************************************************************************


 *************************************************************
 * Values of the primitive constraints                       *
 *************************************************************
 BO0001   : Bond Length=  1.933538 / Angstrom  3.653858 / bohr
 BO0002   : Bond Length=  1.153285 / Angstrom  2.179394 / bohr
 AN0001   : Angle=      177.3955   / Degree    3.096135 / rad

 *******************************************
 * Values of the constraints   / au or rad *
 *******************************************
   Label        C         C0
 Cns001      3.653858  1.889726
 Cns002      2.179394  2.267671
 Cns003      3.096135  3.141593

  11  -289.90524377  -289.90124420     0.00399957  0.02115408  0.05179319  0.00686018  0.43721457  1.20243206  0.02109530    113.97

 Constraints section
ConstraintsConstraintsConstraintsConstraintsConstraintsConstraintsConstraintsConstraintsConstraintsConstraints
ConstraintsConstraintsConstraintsConstraintsConstraintsConstraintsConstraintsConstraintsConstraintsConstraints
Constraints                                                                                        Constraints
Constraints                                 C O N S T R A I N T S                                  Constraints
Constraints                                                                                        Constraints

************************************************************************************************************************
BO0001 = BOND       H11   C6
BO0002 = BOND       H11   C17
AN0001 = ANGLE      C6    H11   C17
VALUES
BO0001 =      1.00000000 ANGSTROM
BO0002 =      1.20000000 ANGSTROM
AN0001 =    180.00000000 DEGREE
************************************************************************************************************************


 *************************************************************
 * Values of the primitive constraints                       *
 *************************************************************
 BO0001   : Bond Length=  1.827468 / Angstrom  3.453415 / bohr
 BO0002   : Bond Length=  1.158593 / Angstrom  2.189424 / bohr
  Valence angle close to end in range of definition
 AN0001   : Angle=      177.5704   / Degree    3.099189 / rad

 *******************************************
 * Values of the constraints   / au or rad *
 *******************************************
   Label        C         C0
 Cns001      3.453415  1.889726
 Cns002      2.189424  2.267671
 Cns003      3.099189  3.141593

  12  -289.90124420  -289.89323573     0.00800847  0.03217552  0.05481992  0.00726108  0.52477644  1.21013994  0.02123053    125.60

 Constraints section
ConstraintsConstraintsConstraintsConstraintsConstraintsConstraintsConstraintsConstraintsConstraintsConstraints
ConstraintsConstraintsConstraintsConstraintsConstraintsConstraintsConstraintsConstraintsConstraintsConstraints
Constraints                                                                                        Constraints
Constraints                                 C O N S T R A I N T S                                  Constraints
Constraints                                                                                        Constraints

************************************************************************************************************************
BO0001 = BOND       H11   C6
BO0002 = BOND       H11   C17
AN0001 = ANGLE      C6    H11   C17
VALUES
BO0001 =      1.00000000 ANGSTROM
BO0002 =      1.20000000 ANGSTROM
AN0001 =    180.00000000 DEGREE
************************************************************************************************************************


 *************************************************************
 * Values of the primitive constraints                       *
 *************************************************************
 BO0001   : Bond Length=  1.607705 / Angstrom  3.038123 / bohr
 BO0002   : Bond Length=  1.169590 / Angstrom  2.210205 / bohr
 AN0001   : Angle=      176.8386   / Degree    3.086415 / rad

 *******************************************
 * Values of the constraints   / au or rad *
 *******************************************
   Label        C         C0
 Cns001      3.038123  1.889726
 Cns002      2.210205  2.267671
 Cns003      3.086415  3.141593

  13  -289.89323573  -289.88850490     0.00473083  0.04264984  0.07016698  0.00929384  0.43585608  1.13266247  0.01987127    136.83

 Constraints section
ConstraintsConstraintsConstraintsConstraintsConstraintsConstraintsConstraintsConstraintsConstraintsConstraints
ConstraintsConstraintsConstraintsConstraintsConstraintsConstraintsConstraintsConstraintsConstraintsConstraints
Constraints                                                                                        Constraints
Constraints                                 C O N S T R A I N T S                                  Constraints
Constraints                                                                                        Constraints

************************************************************************************************************************
BO0001 = BOND       H11   C6
BO0002 = BOND       H11   C17
AN0001 = ANGLE      C6    H11   C17
VALUES
BO0001 =      1.00000000 ANGSTROM
BO0002 =      1.20000000 ANGSTROM
AN0001 =    180.00000000 DEGREE
************************************************************************************************************************


 *************************************************************
 * Values of the primitive constraints                       *
 *************************************************************
 BO0001   : Bond Length=  1.463456 / Angstrom  2.765532 / bohr
 BO0002   : Bond Length=  1.176808 / Angstrom  2.223845 / bohr
 AN0001   : Angle=      174.9536   / Degree    3.053515 / rad

 *******************************************
 * Values of the constraints   / au or rad *
 *******************************************
   Label        C         C0
 Cns001      2.765532  1.889726
 Cns002      2.223845  2.267671
 Cns003      3.053515  3.141593

  14  -289.88850490  -289.87617326     0.01233164  0.04027622  0.06608769  0.00875353  0.30857025  0.78036343  0.01369059    148.79

 Constraints section
ConstraintsConstraintsConstraintsConstraintsConstraintsConstraintsConstraintsConstraintsConstraintsConstraints
ConstraintsConstraintsConstraintsConstraintsConstraintsConstraintsConstraintsConstraintsConstraintsConstraints
Constraints                                                                                        Constraints
Constraints                                 C O N S T R A I N T S                                  Constraints
Constraints                                                                                        Constraints

************************************************************************************************************************
BO0001 = BOND       H11   C6
BO0002 = BOND       H11   C17
AN0001 = ANGLE      C6    H11   C17
VALUES
BO0001 =      1.00000000 ANGSTROM
BO0002 =      1.20000000 ANGSTROM
AN0001 =    180.00000000 DEGREE
************************************************************************************************************************


 *************************************************************
 * Values of the primitive constraints                       *
 *************************************************************
 BO0001   : Bond Length=  1.258053 / Angstrom  2.377376 / bohr
 BO0002   : Bond Length=  1.187089 / Angstrom  2.243273 / bohr
 AN0001   : Angle=      176.9552   / Degree    3.088450 / rad

 *******************************************
 * Values of the constraints   / au or rad *
 *******************************************
   Label        C         C0
 Cns001      2.377376  1.889726
 Cns002      2.243273  2.267671
 Cns003      3.088450  3.141593

  15  -289.87617326  -289.86171556     0.01445770  0.06106619  0.08844824  0.01171526  0.25943572  0.58895443  0.01033253    160.61

 Constraints section
ConstraintsConstraintsConstraintsConstraintsConstraintsConstraintsConstraintsConstraintsConstraintsConstraints
ConstraintsConstraintsConstraintsConstraintsConstraintsConstraintsConstraintsConstraintsConstraintsConstraints
Constraints                                                                                        Constraints
Constraints                                 C O N S T R A I N T S                                  Constraints
Constraints                                                                                        Constraints

************************************************************************************************************************
BO0001 = BOND       H11   C6
BO0002 = BOND       H11   C17
AN0001 = ANGLE      C6    H11   C17
VALUES
BO0001 =      1.00000000 ANGSTROM
BO0002 =      1.20000000 ANGSTROM
AN0001 =    180.00000000 DEGREE
************************************************************************************************************************


 *************************************************************
 * Values of the primitive constraints                       *
 *************************************************************
 BO0001   : Bond Length=  1.133520 / Angstrom  2.142042 / bohr
 BO0002   : Bond Length=  1.193320 / Angstrom  2.255048 / bohr
  Valence angle close to end in range of definition
 AN0001   : Angle=      177.9924   / Degree    3.106554 / rad

 *******************************************
 * Values of the constraints   / au or rad *
 *******************************************
   Label        C         C0
 Cns001      2.142042  1.889726
 Cns002      2.255048  2.267671
 Cns003      3.106554  3.141593

  16  -289.86171556  -289.82680062     0.03491494  0.09338333  0.13101445  0.01735329  0.13688998  0.39900540  0.00700009    172.84

 Constraints section
ConstraintsConstraintsConstraintsConstraintsConstraintsConstraintsConstraintsConstraintsConstraintsConstraints
ConstraintsConstraintsConstraintsConstraintsConstraintsConstraintsConstraintsConstraintsConstraintsConstraints
Constraints                                                                                        Constraints
Constraints                                 C O N S T R A I N T S                                  Constraints
Constraints                                                                                        Constraints

************************************************************************************************************************
BO0001 = BOND       H11   C6
BO0002 = BOND       H11   C17
AN0001 = ANGLE      C6    H11   C17
VALUES
BO0001 =      1.00000000 ANGSTROM
BO0002 =      1.20000000 ANGSTROM
AN0001 =    180.00000000 DEGREE
************************************************************************************************************************


 *************************************************************
 * Values of the primitive constraints                       *
 *************************************************************
 BO0001   : Bond Length=  1.000156 / Angstrom  1.890020 / bohr
 BO0002   : Bond Length=  1.199993 / Angstrom  2.267657 / bohr
  Valence angle close to end in range of definition
 AN0001   : Angle=      179.5265   / Degree    3.133329 / rad

 *******************************************
 * Values of the constraints   / au or rad *
 *******************************************
   Label        C         C0
 Cns001      1.890020  1.889726
 Cns002      2.267657  2.267671
 Cns003      3.133329  3.141593

  17  -289.82680062  -289.82772295    -0.00092234  0.18066274  0.24426383  0.03235353  0.15597192  0.32016782  0.00561698    184.56

 Constraints section
ConstraintsConstraintsConstraintsConstraintsConstraintsConstraintsConstraintsConstraintsConstraintsConstraints
ConstraintsConstraintsConstraintsConstraintsConstraintsConstraintsConstraintsConstraintsConstraintsConstraints
Constraints                                                                                        Constraints
Constraints                                 C O N S T R A I N T S                                  Constraints
Constraints                                                                                        Constraints

************************************************************************************************************************
BO0001 = BOND       H11   C6
BO0002 = BOND       H11   C17
AN0001 = ANGLE      C6    H11   C17
VALUES
BO0001 =      1.00000000 ANGSTROM
BO0002 =      1.20000000 ANGSTROM
AN0001 =    180.00000000 DEGREE
************************************************************************************************************************


 *************************************************************
 * Values of the primitive constraints                       *
 *************************************************************
 BO0001   : Bond Length=  1.000001 / Angstrom  1.889728 / bohr
 BO0002   : Bond Length=  1.200000 / Angstrom  2.267671 / bohr
  Valence angle close to end in range of definition
 AN0001   : Angle=      179.5628   / Degree    3.133961 / rad

 *******************************************
 * Values of the constraints   / au or rad *
 *******************************************
   Label        C         C0
 Cns001      1.889728  1.889726
 Cns002      2.267671  2.267671
 Cns003      3.133961  3.141593

  18  -289.82772295  -289.82916044    -0.00143749  0.17738476  0.24488712  0.03243609  0.07546233  0.25918601  0.00454712    196.10

 Constraints section
ConstraintsConstraintsConstraintsConstraintsConstraintsConstraintsConstraintsConstraintsConstraintsConstraints
ConstraintsConstraintsConstraintsConstraintsConstraintsConstraintsConstraintsConstraintsConstraintsConstraints
Constraints                                                                                        Constraints
Constraints                                 C O N S T R A I N T S                                  Constraints
Constraints                                                                                        Constraints

************************************************************************************************************************
BO0001 = BOND       H11   C6
BO0002 = BOND       H11   C17
AN0001 = ANGLE      C6    H11   C17
VALUES
BO0001 =      1.00000000 ANGSTROM
BO0002 =      1.20000000 ANGSTROM
AN0001 =    180.00000000 DEGREE
************************************************************************************************************************


 *************************************************************
 * Values of the primitive constraints                       *
 *************************************************************
 BO0001   : Bond Length=  1.000000 / Angstrom  1.889726 / bohr
 BO0002   : Bond Length=  1.200000 / Angstrom  2.267671 / bohr
  Valence angle close to end in range of definition
 AN0001   : Angle=      179.8251   / Degree    3.138540 / rad

 *******************************************
 * Values of the constraints   / au or rad *
 *******************************************
   Label        C         C0
 Cns001      1.889726  1.889726
 Cns002      2.267671  2.267671
 Cns003      3.138540  3.141593

  19  -289.82916044  -289.83112324    -0.00196279  0.17645392  0.24364608  0.03227171  0.24181773  0.50333700  0.00883047    208.28

 Constraints section
ConstraintsConstraintsConstraintsConstraintsConstraintsConstraintsConstraintsConstraintsConstraintsConstraints
ConstraintsConstraintsConstraintsConstraintsConstraintsConstraintsConstraintsConstraintsConstraintsConstraints
Constraints                                                                                        Constraints
Constraints                                 C O N S T R A I N T S                                  Constraints
Constraints                                                                                        Constraints

************************************************************************************************************************
BO0001 = BOND       H11   C6
BO0002 = BOND       H11   C17
AN0001 = ANGLE      C6    H11   C17
VALUES
BO0001 =      1.00000000 ANGSTROM
BO0002 =      1.20000000 ANGSTROM
AN0001 =    180.00000000 DEGREE
************************************************************************************************************************


 *************************************************************
 * Values of the primitive constraints                       *
 *************************************************************
 BO0001   : Bond Length=  1.000001 / Angstrom  1.889728 / bohr
 BO0002   : Bond Length=  1.200001 / Angstrom  2.267674 / bohr
  Valence angle close to end in range of definition
 AN0001   : Angle=      179.8138   / Degree    3.138343 / rad

 *******************************************
 * Values of the constraints   / au or rad *
 *******************************************
   Label        C         C0
 Cns001      1.889728  1.889726
 Cns002      2.267674  2.267671
 Cns003      3.138343  3.141593

  20  -289.83112324  -289.83264778    -0.00152454  0.17529569  0.23989594  0.03177499  0.34133001  0.58945842  0.01034138    221.15

 Constraints section
ConstraintsConstraintsConstraintsConstraintsConstraintsConstraintsConstraintsConstraintsConstraintsConstraints
ConstraintsConstraintsConstraintsConstraintsConstraintsConstraintsConstraintsConstraintsConstraintsConstraints
Constraints                                                                                        Constraints
Constraints                                 C O N S T R A I N T S                                  Constraints
Constraints                                                                                        Constraints

************************************************************************************************************************
BO0001 = BOND       H11   C6
BO0002 = BOND       H11   C17
AN0001 = ANGLE      C6    H11   C17
VALUES
BO0001 =      1.00000000 ANGSTROM
BO0002 =      1.20000000 ANGSTROM
AN0001 =    180.00000000 DEGREE
************************************************************************************************************************


 *************************************************************
 * Values of the primitive constraints                       *
 *************************************************************
 BO0001   : Bond Length=  1.000003 / Angstrom  1.889731 / bohr
 BO0002   : Bond Length=  1.200002 / Angstrom  2.267675 / bohr
  Valence angle close to end in range of definition
 AN0001   : Angle=      179.9253   / Degree    3.140289 / rad

 *******************************************
 * Values of the constraints   / au or rad *
 *******************************************
   Label        C         C0
 Cns001      1.889731  1.889726
 Cns002      2.267675  2.267671
 Cns003      3.140289  3.141593

  21  -289.83264778  -289.83321565    -0.00056787  0.17443171  0.23399876  0.03099389  0.23486516  0.39185120  0.00687458    233.98

 Constraints section
ConstraintsConstraintsConstraintsConstraintsConstraintsConstraintsConstraintsConstraintsConstraintsConstraints
ConstraintsConstraintsConstraintsConstraintsConstraintsConstraintsConstraintsConstraintsConstraintsConstraints
Constraints                                                                                        Constraints
Constraints                                 C O N S T R A I N T S                                  Constraints
Constraints                                                                                        Constraints

************************************************************************************************************************
BO0001 = BOND       H11   C6
BO0002 = BOND       H11   C17
AN0001 = ANGLE      C6    H11   C17
VALUES
BO0001 =      1.00000000 ANGSTROM
BO0002 =      1.20000000 ANGSTROM
AN0001 =    180.00000000 DEGREE
************************************************************************************************************************


 *************************************************************
 * Values of the primitive constraints                       *
 *************************************************************
 BO0001   : Bond Length=  1.000001 / Angstrom  1.889728 / bohr
 BO0002   : Bond Length=  1.200001 / Angstrom  2.267673 / bohr
  Valence angle close to end in range of definition
 AN0001   : Angle=      179.9577   / Degree    3.140855 / rad

 *******************************************
 * Values of the constraints   / au or rad *
 *******************************************
   Label        C         C0
 Cns001      1.889728  1.889726
 Cns002      2.267673  2.267671
 Cns003      3.140855  3.141593

  22  -289.83321565  -289.83357019    -0.00035455  0.17289308  0.22945667  0.03039228  0.06526293  0.12754376  0.00223761    244.87

 Constraints section
ConstraintsConstraintsConstraintsConstraintsConstraintsConstraintsConstraintsConstraintsConstraintsConstraints
ConstraintsConstraintsConstraintsConstraintsConstraintsConstraintsConstraintsConstraintsConstraintsConstraints
Constraints                                                                                        Constraints
Constraints                                 C O N S T R A I N T S                                  Constraints
Constraints                                                                                        Constraints

************************************************************************************************************************
BO0001 = BOND       H11   C6
BO0002 = BOND       H11   C17
AN0001 = ANGLE      C6    H11   C17
VALUES
BO0001 =      1.00000000 ANGSTROM
BO0002 =      1.20000000 ANGSTROM
AN0001 =    180.00000000 DEGREE
************************************************************************************************************************


 *************************************************************
 * Values of the primitive constraints                       *
 *************************************************************
 BO0001   : Bond Length=  1.000000 / Angstrom  1.889726 / bohr
 BO0002   : Bond Length=  1.200000 / Angstrom  2.267671 / bohr
  Valence angle close to end in range of definition
 AN0001   : Angle=      179.8571   / Degree    3.139099 / rad

 *******************************************
 * Values of the constraints   / au or rad *
 *******************************************
   Label        C         C0
 Cns001      1.889726  1.889726
 Cns002      2.267671  2.267671
 Cns003      3.139099  3.141593

  23  -289.83357019  -289.83386744    -0.00029725  0.17179856  0.22879769  0.03030499  0.10454148  0.19275404  0.00338165    255.78

 Constraints section
ConstraintsConstraintsConstraintsConstraintsConstraintsConstraintsConstraintsConstraintsConstraintsConstraints
ConstraintsConstraintsConstraintsConstraintsConstraintsConstraintsConstraintsConstraintsConstraintsConstraints
Constraints                                                                                        Constraints
Constraints                                 C O N S T R A I N T S                                  Constraints
Constraints                                                                                        Constraints

************************************************************************************************************************
BO0001 = BOND       H11   C6
BO0002 = BOND       H11   C17
AN0001 = ANGLE      C6    H11   C17
VALUES
BO0001 =      1.00000000 ANGSTROM
BO0002 =      1.20000000 ANGSTROM
AN0001 =    180.00000000 DEGREE
************************************************************************************************************************


 *************************************************************
 * Values of the primitive constraints                       *
 *************************************************************
 BO0001   : Bond Length=  1.000000 / Angstrom  1.889726 / bohr
 BO0002   : Bond Length=  1.200000 / Angstrom  2.267671 / bohr
  Valence angle close to end in range of definition
 AN0001   : Angle=      179.8534   / Degree    3.139034 / rad

 *******************************************
 * Values of the constraints   / au or rad *
 *******************************************
   Label        C         C0
 Cns001      1.889726  1.889726
 Cns002      2.267671  2.267671
 Cns003      3.139034  3.141593

  24  -289.83386744  -289.83409639    -0.00022894  0.17063256  0.22782488  0.03017614  0.09805230  0.20586191  0.00361161    266.60

 Constraints section
ConstraintsConstraintsConstraintsConstraintsConstraintsConstraintsConstraintsConstraintsConstraintsConstraints
ConstraintsConstraintsConstraintsConstraintsConstraintsConstraintsConstraintsConstraintsConstraintsConstraints
Constraints                                                                                        Constraints
Constraints                                 C O N S T R A I N T S                                  Constraints
Constraints                                                                                        Constraints

************************************************************************************************************************
BO0001 = BOND       H11   C6
BO0002 = BOND       H11   C17
AN0001 = ANGLE      C6    H11   C17
VALUES
BO0001 =      1.00000000 ANGSTROM
BO0002 =      1.20000000 ANGSTROM
AN0001 =    180.00000000 DEGREE
************************************************************************************************************************


 *************************************************************
 * Values of the primitive constraints                       *
 *************************************************************
 BO0001   : Bond Length=  1.000000 / Angstrom  1.889726 / bohr
 BO0002   : Bond Length=  1.200000 / Angstrom  2.267671 / bohr
  Valence angle close to end in range of definition
 AN0001   : Angle=      179.8711   / Degree    3.139343 / rad

 *******************************************
 * Values of the constraints   / au or rad *
 *******************************************
   Label        C         C0
 Cns001      1.889726  1.889726
 Cns002      2.267671  2.267671
 Cns003      3.139343  3.141593

  25  -289.83409639  -289.83434635    -0.00024996  0.17020440  0.22681255  0.03004206  0.11962040  0.23479852  0.00411927    277.34

 Constraints section
ConstraintsConstraintsConstraintsConstraintsConstraintsConstraintsConstraintsConstraintsConstraintsConstraints
ConstraintsConstraintsConstraintsConstraintsConstraintsConstraintsConstraintsConstraintsConstraintsConstraints
Constraints                                                                                        Constraints
Constraints                                 C O N S T R A I N T S                                  Constraints
Constraints                                                                                        Constraints

************************************************************************************************************************
BO0001 = BOND       H11   C6
BO0002 = BOND       H11   C17
AN0001 = ANGLE      C6    H11   C17
VALUES
BO0001 =      1.00000000 ANGSTROM
BO0002 =      1.20000000 ANGSTROM
AN0001 =    180.00000000 DEGREE
************************************************************************************************************************


 *************************************************************
 * Values of the primitive constraints                       *
 *************************************************************
 BO0001   : Bond Length=  1.000000 / Angstrom  1.889726 / bohr
 BO0002   : Bond Length=  1.200000 / Angstrom  2.267671 / bohr
  Valence angle close to end in range of definition
 AN0001   : Angle=      179.9792   / Degree    3.141229 / rad

 *******************************************
 * Values of the constraints   / au or rad *
 *******************************************
   Label        C         C0
 Cns001      1.889726  1.889726
 Cns002      2.267671  2.267671
 Cns003      3.141229  3.141593

  26  -289.83434635  -289.83462333    -0.00027698  0.17025722  0.22654107  0.03000610  0.12745669  0.26747970  0.00469263    288.00

 Constraints section
ConstraintsConstraintsConstraintsConstraintsConstraintsConstraintsConstraintsConstraintsConstraintsConstraints
ConstraintsConstraintsConstraintsConstraintsConstraintsConstraintsConstraintsConstraintsConstraintsConstraints
Constraints                                                                                        Constraints
Constraints                                 C O N S T R A I N T S                                  Constraints
Constraints                                                                                        Constraints

************************************************************************************************************************
BO0001 = BOND       H11   C6
BO0002 = BOND       H11   C17
AN0001 = ANGLE      C6    H11   C17
VALUES
BO0001 =      1.00000000 ANGSTROM
BO0002 =      1.20000000 ANGSTROM
AN0001 =    180.00000000 DEGREE
************************************************************************************************************************


 *************************************************************
 * Values of the primitive constraints                       *
 *************************************************************
 BO0001   : Bond Length=  1.000000 / Angstrom  1.889726 / bohr
 BO0002   : Bond Length=  1.200000 / Angstrom  2.267671 / bohr
  Valence angle close to end in range of definition
 AN0001   : Angle=      179.9520   / Degree    3.140755 / rad

 *******************************************
 * Values of the constraints   / au or rad *
 *******************************************
   Label        C         C0
 Cns001      1.889726  1.889726
 Cns002      2.267671  2.267671
 Cns003      3.140755  3.141593

  27  -289.83462333  -289.83481697    -0.00019364  0.17072799  0.22664640  0.03002005  0.14306632  0.28736484  0.00504149    298.68

 Constraints section
ConstraintsConstraintsConstraintsConstraintsConstraintsConstraintsConstraintsConstraintsConstraintsConstraints
ConstraintsConstraintsConstraintsConstraintsConstraintsConstraintsConstraintsConstraintsConstraintsConstraints
Constraints                                                                                        Constraints
Constraints                                 C O N S T R A I N T S                                  Constraints
Constraints                                                                                        Constraints

************************************************************************************************************************
BO0001 = BOND       H11   C6
BO0002 = BOND       H11   C17
AN0001 = ANGLE      C6    H11   C17
VALUES
BO0001 =      1.00000000 ANGSTROM
BO0002 =      1.20000000 ANGSTROM
AN0001 =    180.00000000 DEGREE
************************************************************************************************************************


 *************************************************************
 * Values of the primitive constraints                       *
 *************************************************************
 BO0001   : Bond Length=  1.000000 / Angstrom  1.889726 / bohr
 BO0002   : Bond Length=  1.200000 / Angstrom  2.267671 / bohr
  Valence angle close to end in range of definition
 AN0001   : Angle=      179.8487   / Degree    3.138952 / rad

 *******************************************
 * Values of the constraints   / au or rad *
 *******************************************
   Label        C         C0
 Cns001      1.889726  1.889726
 Cns002      2.267671  2.267671
 Cns003      3.138952  3.141593

  28  -289.83481697  -289.83493490    -0.00011793  0.17151662  0.22718027  0.03009076  0.12155526  0.24389369  0.00427884    309.53

 Constraints section
ConstraintsConstraintsConstraintsConstraintsConstraintsConstraintsConstraintsConstraintsConstraintsConstraints
ConstraintsConstraintsConstraintsConstraintsConstraintsConstraintsConstraintsConstraintsConstraintsConstraints
Constraints                                                                                        Constraints
Constraints                                 C O N S T R A I N T S                                  Constraints
Constraints                                                                                        Constraints

************************************************************************************************************************
BO0001 = BOND       H11   C6
BO0002 = BOND       H11   C17
AN0001 = ANGLE      C6    H11   C17
VALUES
BO0001 =      1.00000000 ANGSTROM
BO0002 =      1.20000000 ANGSTROM
AN0001 =    180.00000000 DEGREE
************************************************************************************************************************


 *************************************************************
 * Values of the primitive constraints                       *
 *************************************************************
 BO0001   : Bond Length=  1.000000 / Angstrom  1.889726 / bohr
 BO0002   : Bond Length=  1.200000 / Angstrom  2.267671 / bohr
  Valence angle close to end in range of definition
 AN0001   : Angle=      179.8748   / Degree    3.139408 / rad

 *******************************************
 * Values of the constraints   / au or rad *
 *******************************************
   Label        C         C0
 Cns001      1.889726  1.889726
 Cns002      2.267671  2.267671
 Cns003      3.139408  3.141593

  29  -289.83493490  -289.83505906    -0.00012417  0.17250322  0.22779014  0.03017154  0.08579654  0.16001645  0.00280731    320.32

 Constraints section
ConstraintsConstraintsConstraintsConstraintsConstraintsConstraintsConstraintsConstraintsConstraintsConstraints
ConstraintsConstraintsConstraintsConstraintsConstraintsConstraintsConstraintsConstraintsConstraintsConstraints
Constraints                                                                                        Constraints
Constraints                                 C O N S T R A I N T S                                  Constraints
Constraints                                                                                        Constraints

************************************************************************************************************************
BO0001 = BOND       H11   C6
BO0002 = BOND       H11   C17
AN0001 = ANGLE      C6    H11   C17
VALUES
BO0001 =      1.00000000 ANGSTROM
BO0002 =      1.20000000 ANGSTROM
AN0001 =    180.00000000 DEGREE
************************************************************************************************************************


 *************************************************************
 * Values of the primitive constraints                       *
 *************************************************************
 BO0001   : Bond Length=  1.000000 / Angstrom  1.889726 / bohr
 BO0002   : Bond Length=  1.200000 / Angstrom  2.267671 / bohr
  Valence angle close to end in range of definition
 AN0001   : Angle=      179.9055   / Degree    3.139943 / rad

 *******************************************
 * Values of the constraints   / au or rad *
 *******************************************
   Label        C         C0
 Cns001      1.889726  1.889726
 Cns002      2.267671  2.267671
 Cns003      3.139943  3.141593

  30  -289.83505906  -289.83504463     0.00001443  0.17303149  0.22794189  0.03019164  0.07551994  0.13895540  0.00243781    331.14

 Constraints section
ConstraintsConstraintsConstraintsConstraintsConstraintsConstraintsConstraintsConstraintsConstraintsConstraints
ConstraintsConstraintsConstraintsConstraintsConstraintsConstraintsConstraintsConstraintsConstraintsConstraints
Constraints                                                                                        Constraints
Constraints                                 C O N S T R A I N T S                                  Constraints
Constraints                                                                                        Constraints

************************************************************************************************************************
BO0001 = BOND       H11   C6
BO0002 = BOND       H11   C17
AN0001 = ANGLE      C6    H11   C17
VALUES
BO0001 =      1.00000000 ANGSTROM
BO0002 =      1.20000000 ANGSTROM
AN0001 =    180.00000000 DEGREE
************************************************************************************************************************


 *************************************************************
 * Values of the primitive constraints                       *
 *************************************************************
 BO0001   : Bond Length=  1.000000 / Angstrom  1.889726 / bohr
 BO0002   : Bond Length=  1.200000 / Angstrom  2.267671 / bohr
  Valence angle close to end in range of definition
 AN0001   : Angle=      179.9520   / Degree    3.140756 / rad

 *******************************************
 * Values of the constraints   / au or rad *
 *******************************************
   Label        C         C0
 Cns001      1.889726  1.889726
 Cns002      2.267671  2.267671
 Cns003      3.140756  3.141593

  31  -289.83504463  -289.83511215    -0.00006752  0.17366983  0.22819865  0.03022565  0.07538190  0.12906532  0.00226430    341.98

 Constraints section
ConstraintsConstraintsConstraintsConstraintsConstraintsConstraintsConstraintsConstraintsConstraintsConstraints
ConstraintsConstraintsConstraintsConstraintsConstraintsConstraintsConstraintsConstraintsConstraintsConstraints
Constraints                                                                                        Constraints
Constraints                                 C O N S T R A I N T S                                  Constraints
Constraints                                                                                        Constraints

************************************************************************************************************************
BO0001 = BOND       H11   C6
BO0002 = BOND       H11   C17
AN0001 = ANGLE      C6    H11   C17
VALUES
BO0001 =      1.00000000 ANGSTROM
BO0002 =      1.20000000 ANGSTROM
AN0001 =    180.00000000 DEGREE
************************************************************************************************************************


 *************************************************************
 * Values of the primitive constraints                       *
 *************************************************************
 BO0001   : Bond Length=  1.000000 / Angstrom  1.889726 / bohr
 BO0002   : Bond Length=  1.200000 / Angstrom  2.267671 / bohr
  Valence angle close to end in range of definition
 AN0001   : Angle=      179.8656   / Degree    3.139246 / rad

[...]
   12      0.131D-05      0.241D-06      -290.19155023    853.155396    0.18186   -0.42317    1.74473    9     33.1    438.5
   13      0.568D-06      0.127D-06      -290.19155023    853.155426    0.18183   -0.42318    1.74467    9     31.8    470.3
   14      0.288D-06      0.803D-07      -290.19155023    853.155346    0.18180   -0.42320    1.74466    9     30.5    500.8

 Final alpha occupancy:  28
 Final beta  occupancy:  27

 !UKS STATE  1.1 Energy              -290.191550234908
 Nuclear energy                       299.72708203
 One-electron energy                 -983.40586749
 Two-electron energy                  426.57767310
 Density functional                   -33.09043787     PBEX=-41.75654299 PBEC= -1.77303063
 Virial quotient                       -1.00394915
 !UKS STATE  1.1 Dipole moment          0.18179983    -0.42320315     1.74465895
 Dipole moment /Debye                   0.46205881    -1.07560465     4.43419031

 Orbital energies for positive spin:

         1.1          2.1          3.1          4.1          5.1          6.1          7.1          8.1          9.1         10.1
    -14.378896   -10.261687   -10.257498   -10.254433   -10.238891   -10.225576   -10.222418    -0.931459    -0.884327    -0.797837

        11.1         12.1         13.1         14.1         15.1         16.1         17.1         18.1         19.1         20.1
     -0.723018    -0.704350    -0.637344    -0.546109    -0.501158    -0.477145    -0.464115    -0.440774    -0.416894    -0.407561

        21.1         22.1         23.1         24.1         25.1         26.1         27.1         28.1         29.1         30.1
     -0.398644    -0.393221    -0.368277    -0.363018    -0.360436    -0.350673    -0.347417    -0.261796     0.020145     0.026733

 Orbital energies for negative spin:

         1.1          2.1          3.1          4.1          5.1          6.1          7.1          8.1          9.1         10.1
    -14.376833   -10.254476   -10.252777   -10.244772   -10.239008   -10.225482   -10.222343    -0.917842    -0.872099    -0.790857

        11.1         12.1         13.1         14.1         15.1         16.1         17.1         18.1         19.1         20.1
     -0.720134    -0.690506    -0.624309    -0.532300    -0.495063    -0.475007    -0.458375    -0.431239    -0.415695    -0.406538

        21.1         22.1         23.1         24.1         25.1         26.1         27.1         28.1         29.1         30.1
     -0.394881    -0.378557    -0.364044    -0.360618    -0.356077    -0.344009    -0.332521    -0.125957     0.028271     0.032977


 HOMO     28.1    -0.261796 =      -7.1238eV
 LUMO    -28.1    -0.125957 =      -3.4275eV
 LUMO-HOMO         0.135839 =       3.6964eV

 EXPECTATION VALUE OF S**2:             0.75963645

 Occupation number threshold for pseudo-canonical orbitals: 1.9990 (occupied), 0.0010 (virtual)

 Number of pseudo-canonical occupied orbitals per symmetry:   25
 Number of active natural orbitals per symmetry:               5

 Natural orbitals saved to record    2204.2 (Orbital set 3)

 Orbital spaces for UNO-CAS (Min. occupation: 0.020  Max. occupation: 1.980):

 Closed:       27
 Active:        1


 **********************************************************************************************************************************
 DATASETS  * FILE   NREC   LENGTH (MB)   RECORD NAMES
              1      19       35.49       500      610      700      900      950      970     1001      129      960     1100   
                                          VAR    BASINP    GEOM    SYMINP    ZMAT    AOBASIS   BASIS     P2S    ABASIS      S 
                                         1400     1410     1200     1210     1080     1600     1650     1700     1800   
                                           T        V       H0       H01     AOSYM     SMH    MOLCAS    OPER     GRID   

              2      13       27.53       700     1000      520     2100     1800     2200      520(1)  2201      520(2)  2202   
                                         GEOM     BASIS   MCVARS     RHF     GRID      UKS    MCVARS     UKS    MCVARS     UKS  
                                         1001     2203     2204   
                                         BASIS     UKS      UKS  

 PROGRAMS   *        TOTAL    DF-UKS    DF-UKS       INT    DF-UKS      OPTG    DF-UKS      OPTG    DF-UKS     DF-HF       INT
 CPU TIMES  *      2781.14    500.87     16.34      0.24      8.26   1611.12     84.96    540.66      8.69      9.55      0.30
 REAL TIME  *      2795.22 SEC
 DISK USED  *        89.19 MB
 **********************************************************************************************************************************

 Density functional group PBE0=PBEX+PBEC
 Functional: PBEX(Automatically generated (new) PBEX)                          Gradient terms: 1
 Functional: PBEC(Automatically generated (new) PBEC)                          Gradient terms: 1
 Use libxcgrid:  F
 Use grid at  1800.2


 Exact exchange will be calculated, factor:  0.2500

 Functional: PBEX                      Factor:  0.7500
 Functional: PBEC                      Factor:  1.0000

  234265 words reserved for DFT integration

 PROGRAM * UKS-SCF (Unrestricted Kohn-Sham)     Authors: W. Meyer, H.-J. Werner, P.J. Knowles, 1993

 NUMBER OF ELECTRONS:      28+   27-    SPACE SYMMETRY=1    SPIN SYMMETRY: Doublet 
 CONVERGENCE THRESHOLDS:    1.00E-06 (Density)    1.00E-06 (Energy)
 INTEGRAL THRESHOLDS:       1.00E-11 (Initial)    1.00E-11 (Final)
 MAX. NUMBER OF ITERATIONS:       60
 INTERPOLATION TYPE:            DIIS
 INTERPOLATION STEPS:              2 (START)      1 (STEP)
 LEVEL SHIFTS:                 -0.20 (ALPHA)  -0.20 (BETA) 



 Use fine grid record 1800.2 for energy threshold  1.0D-06
 Molecular orbitals read from record     2204.2  Type=UKS/ALPHA (state 1.1)
 Molecular orbitals read from record     2204.2  Type=UKS/BETA (state 1.1)

 Molecular orbital dump at record        2205.2

 Initial alpha occupation  28
 Initial beta  occupation  27

 Direct Fock-matrix evaluation.        Author: H.-J. Werner (1996)

 Integral Threshold:                  0.1D-10

 ITERATION   DDIFF            GRAD            ENERGY        2-EL.EN.            DIPOLE MOMENTS         DIIS   CPU(IT)  CPU(TOT)
    1      0.000D+00      0.000D+00      -290.19130987    853.155827    0.18180   -0.42320    1.74466    0     41.5     41.5
    2      0.362D-04      0.739D-05      -290.19131114    853.152420    0.18174   -0.42321    1.74463    1     39.5     81.0
    3      0.125D-04      0.124D-05      -290.19131120    853.153360    0.18169   -0.42322    1.74461    2     38.8    119.8
    4      0.506D-05      0.232D-06      -290.19131121    853.153152    0.18167   -0.42323    1.74460    3     37.7    157.5
    5      0.127D-05      0.839D-07      -290.19131121    853.153450    0.18166   -0.42325    1.74462    4     36.3    193.8
    6      0.390D-06      0.417D-07      -290.19131121    853.153404    0.18166   -0.42324    1.74461    5     35.2    229.0
    7      0.992D-07      0.201D-07      -290.19131121    853.153371    0.18165   -0.42325    1.74461    6     33.5    262.5

 Final alpha occupancy:  28
 Final beta  occupancy:  27

 !UKS STATE  1.1 Energy              -290.191311208594
 Nuclear energy                       299.72708203
 One-electron energy                 -983.40491626
 Two-electron energy                  426.57668547
 Density functional                   -33.09016244     PBEX=-41.75611835 PBEC= -1.77307367
 Virial quotient                       -1.00396215
 !UKS STATE  1.1 Dipole moment          0.18165204    -0.42325330     1.74460989
 Dipole moment /Debye                   0.46168319    -1.07573213     4.43406562

 Orbital energies for positive spin:

         1.1          2.1          3.1          4.1          5.1          6.1          7.1          8.1          9.1         10.1
    -14.378925   -10.261708   -10.257557   -10.254463   -10.238943   -10.225625   -10.222468    -0.931453    -0.884329    -0.797843

        11.1         12.1         13.1         14.1         15.1         16.1         17.1         18.1         19.1         20.1
     -0.723025    -0.704356    -0.637346    -0.546111    -0.501164    -0.477150    -0.464123    -0.440779    -0.416907    -0.407563

        21.1         22.1         23.1         24.1         25.1         26.1         27.1         28.1         29.1         30.1
     -0.398642    -0.393216    -0.368278    -0.363023    -0.360441    -0.350684    -0.347413    -0.261802     0.020118     0.026675

 Orbital energies for negative spin:

         1.1          2.1          3.1          4.1          5.1          6.1          7.1          8.1          9.1         10.1
    -14.376862   -10.254506   -10.252798   -10.244830   -10.239060   -10.225530   -10.222393    -0.917836    -0.872103    -0.790865

        11.1         12.1         13.1         14.1         15.1         16.1         17.1         18.1         19.1         20.1
     -0.720142    -0.690512    -0.624312    -0.532303    -0.495070    -0.475012    -0.458383    -0.431242    -0.415708    -0.406540

        21.1         22.1         23.1         24.1         25.1         26.1         27.1         28.1         29.1         30.1
     -0.394882    -0.378541    -0.364045    -0.360628    -0.356077    -0.344022    -0.332523    -0.125962     0.028215     0.032932


 HOMO     28.1    -0.261802 =      -7.1240eV
 LUMO    -28.1    -0.125962 =      -3.4276eV
 LUMO-HOMO         0.135840 =       3.6964eV

 EXPECTATION VALUE OF S**2:             0.75963867

 Occupation number threshold for pseudo-canonical orbitals: 1.9990 (occupied), 0.0010 (virtual)

 Number of pseudo-canonical occupied orbitals per symmetry:   25
 Number of active natural orbitals per symmetry:               5

 Natural orbitals saved to record    2205.2 (Orbital set 3)

 Orbital spaces for UNO-CAS (Min. occupation: 0.020  Max. occupation: 1.980):

 Closed:       27
 Active:        1


 **********************************************************************************************************************************
 DATASETS  * FILE   NREC   LENGTH (MB)   RECORD NAMES
              1      19       35.49       500      610      700      900      950      970     1001      129      960     1100   
                                          VAR    BASINP    GEOM    SYMINP    ZMAT    AOBASIS   BASIS     P2S    ABASIS      S 
                                         1400     1410     1200     1210     1080     1600     1650     1700     1800   
                                           T        V       H0       H01     AOSYM     SMH    MOLCAS    OPER     GRID   

              2      14       33.39       700     1000      520     2100     1800     2200      520(1)  2201      520(2)  2202   
                                         GEOM     BASIS   MCVARS     RHF     GRID      UKS    MCVARS     UKS    MCVARS     UKS  
                                         1001     2203     2204     2205   
                                         BASIS     UKS      UKS      UKS  

 PROGRAMS   *        TOTAL   UKS-SCF    DF-UKS    DF-UKS       INT    DF-UKS      OPTG    DF-UKS      OPTG    DF-UKS     DF-HF
 CPU TIMES  *      3043.71    262.57    500.87     16.34      0.24      8.26   1611.12     84.96    540.66      8.69      9.55
 REAL TIME  *      3057.83 SEC
 DISK USED  *        90.78 MB
 **********************************************************************************************************************************

 Density functional group B3LYP=B88+DIRAC+LYP+VWN5
 Functional: B88(Automatically generated (new) B88)                            Gradient terms: 1
 Functional: DIRAC(Automatically generated (new) DIRAC)                        Gradient terms: 0
 Functional: LYP(Automatically generated (new) LYP)                            Gradient terms: 1
 Functional: VWN5(Automatically generated (new) VWN5)                          Gradient terms: 0
 Use libxcgrid:  F
 Use grid at  1800.2


 Exact exchange will be calculated, factor:  0.2000

 Functional: B88                       Factor:  0.7200
 Functional: DIRAC                     Factor:  0.0800
 Functional: LYP                       Factor:  0.8100
 Functional: VWN5                      Factor:  0.1900

  234265 words reserved for DFT integration

 PROGRAM * UKS-SCF (Unrestricted Kohn-Sham)     Authors: W. Meyer, H.-J. Werner, P.J. Knowles, 1993

 NUMBER OF ELECTRONS:      28+   27-    SPACE SYMMETRY=1    SPIN SYMMETRY: Doublet 
 CONVERGENCE THRESHOLDS:    1.00E-06 (Density)    1.00E-06 (Energy)
 INTEGRAL THRESHOLDS:       1.00E-11 (Initial)    1.00E-11 (Final)
 MAX. NUMBER OF ITERATIONS:       60
 INTERPOLATION TYPE:            DIIS
 INTERPOLATION STEPS:              2 (START)      1 (STEP)
 LEVEL SHIFTS:                 -0.20 (ALPHA)  -0.20 (BETA) 



 Use fine grid record 1800.2 for energy threshold  1.0D-06
 Molecular orbitals read from record     2205.2  Type=UKS/ALPHA (state 1.1)
 Molecular orbitals read from record     2205.2  Type=UKS/BETA (state 1.1)

 Molecular orbital dump at record        2206.2

 Initial alpha occupation  28
 Initial beta  occupation  27

 Direct Fock-matrix evaluation.        Author: H.-J. Werner (1996)

 Integral Threshold:                  0.1D-10

 ITERATION   DDIFF            GRAD            ENERGY        2-EL.EN.            DIPOLE MOMENTS         DIIS   CPU(IT)  CPU(TOT)
    1      0.000D+00      0.000D+00      -290.36025569    857.344547    0.18165   -0.42325    1.74461    0     41.5     41.5
    2      0.129D-02      0.393D-03      -290.36431796    857.698567    0.18105   -0.42790    1.75403    1     40.4     81.9
    3      0.189D-03      0.615D-04      -290.36450686    857.375528    0.18495   -0.41667    1.74002    2     39.8    121.7
    4      0.981D-04      0.299D-04      -290.36453768    857.388942    0.17889   -0.42833    1.75086    3     39.5    161.2
    5      0.423D-04      0.157D-04      -290.36454746    857.413331    0.18403   -0.41882    1.74544    4     39.1    200.4
    6      0.248D-04      0.820D-05      -290.36455131    857.387157    0.18330   -0.42015    1.74749    5     38.8    239.1
    7      0.119D-04      0.274D-05      -290.36455298    857.392787    0.18343   -0.42008    1.74810    6     38.3    277.5
    8      0.771D-05      0.184D-05      -290.36455415    857.389059    0.18406   -0.41923    1.74880    7     38.1    315.6
    9      0.558D-05      0.112D-05      -290.36455467    857.389227    0.18436   -0.41876    1.74899    8     37.8    353.4
   10      0.241D-05      0.536D-06      -290.36455474    857.389168    0.18448   -0.41877    1.74925    8     37.2    390.6
   11      0.128D-05      0.203D-06      -290.36455475    857.389162    0.18453   -0.41869    1.74922    9     36.6    427.2
   12      0.473D-06      0.873D-07      -290.36455475    857.389113    0.18454   -0.41870    1.74916    9     35.7    463.0
   13      0.143D-06      0.310D-07      -290.36455475    857.389102    0.18454   -0.41870    1.74917    9     34.3    497.3

 Final alpha occupancy:  28
 Final beta  occupancy:  27

 !UKS STATE  1.1 Energy              -290.364554753490
 Nuclear energy                       299.72708203
 One-electron energy                 -983.40482608
 Two-electron energy                  428.69455081
 Density functional                   -35.38136151     B88=-42.02632163 DIRAC=-37.80616037 LYP= -1.78004819 VWN5= -3.45304247
 Virial quotient                       -1.00347861
 !UKS STATE  1.1 Dipole moment          0.18454112    -0.41870227     1.74916560
 Dipole moment /Debye                   0.46902603    -1.06416531     4.44564429

 Orbital energies for positive spin:

         1.1          2.1          3.1          4.1          5.1          6.1          7.1          8.1          9.1         10.1
    -14.310850   -10.207332   -10.203448   -10.199893   -10.186929   -10.173502   -10.170521    -0.905260    -0.858735    -0.774357

        11.1         12.1         13.1         14.1         15.1         16.1         17.1         18.1         19.1         20.1
     -0.701809    -0.684014    -0.618430    -0.529520    -0.485943    -0.462831    -0.449640    -0.427255    -0.404758    -0.395967

        21.1         22.1         23.1         24.1         25.1         26.1         27.1         28.1         29.1         30.1
     -0.386066    -0.380083    -0.357478    -0.352269    -0.349807    -0.337500    -0.334340    -0.250393     0.013312     0.017894

 Orbital energies for negative spin:

         1.1          2.1          3.1          4.1          5.1          6.1          7.1          8.1          9.1         10.1
    -14.308504   -10.199899   -10.199077   -10.191669   -10.187002   -10.173413   -10.170451    -0.892121    -0.847178    -0.767866

        11.1         12.1         13.1         14.1         15.1         16.1         17.1         18.1         19.1         20.1
     -0.698916    -0.671268    -0.606722    -0.517281    -0.480395    -0.460898    -0.444577    -0.419029    -0.403694    -0.394998

        21.1         22.1         23.1         24.1         25.1         26.1         27.1         28.1         29.1         30.1
     -0.383638    -0.365484    -0.353346    -0.349790    -0.346144    -0.330746    -0.320380    -0.135264     0.018951     0.024187


 HOMO     28.1    -0.250393 =      -6.8135eV
 LUMO    -28.1    -0.135264 =      -3.6807eV
 LUMO-HOMO         0.115129 =       3.1328eV

 EXPECTATION VALUE OF S**2:             0.75727831

 Occupation number threshold for pseudo-canonical orbitals: 1.9990 (occupied), 0.0010 (virtual)

 Number of pseudo-canonical occupied orbitals per symmetry:   25
 Number of active natural orbitals per symmetry:               5

 Natural orbitals saved to record    2206.2 (Orbital set 3)

 Orbital spaces for UNO-CAS (Min. occupation: 0.020  Max. occupation: 1.980):

 Closed:       27
 Active:        1


 **********************************************************************************************************************************
 DATASETS  * FILE   NREC   LENGTH (MB)   RECORD NAMES
              1      19       35.49       500      610      700      900      950      970     1001      129      960     1100   
                                          VAR    BASINP    GEOM    SYMINP    ZMAT    AOBASIS   BASIS     P2S    ABASIS      S 
                                         1400     1410     1200     1210     1080     1600     1650     1700     1800   
                                           T        V       H0       H01     AOSYM     SMH    MOLCAS    OPER     GRID   

              2      15       39.24       700     1000      520     2100     1800     2200      520(1)  2201      520(2)  2202   
                                         GEOM     BASIS   MCVARS     RHF     GRID      UKS    MCVARS     UKS    MCVARS     UKS  
                                         1001     2203     2204     2205     2206   
                                         BASIS     UKS      UKS      UKS      UKS  

 PROGRAMS   *        TOTAL   UKS-SCF   UKS-SCF    DF-UKS    DF-UKS       INT    DF-UKS      OPTG    DF-UKS      OPTG    DF-UKS
 CPU TIMES  *      3541.04    497.33    262.57    500.87     16.34      0.24      8.26   1611.12     84.96    540.66      8.69
 REAL TIME  *      3555.27 SEC
 DISK USED  *        99.32 MB
 **********************************************************************************************************************************

 UB3LYP/TZVP//CF-UKS/SVP energy=   -290.364554753490

         UKS-SCF         UKS-SCF          DF-UKS          DF-UKS          DF-UKS    OPTG(DF-UKS)          DF-UKS    OPTG(DF-UKS)
   -290.36455475   -290.19131121   -290.19155023   -290.15810574   -289.83414435   -289.87475541   -289.87348183   -289.83530617
 **********************************************************************************************************************************
 Molpro calculation terminated with 2 warning(s)
