
 Primary working directories    : /mnt/storage/home/lb17101/scratch/1377762/molpro.9jaG1zjOv3
 Secondary working directories  : /mnt/storage/home/lb17101/scratch/1377762/molpro.9jaG1zjOv3
 Wavefunction directory         : /mnt/storage/home/lb17101/optimizations/11/
 Main file repository           : /mnt/storage/home/lb17101/optimizations/11/

 id        : simonbennie

 Nodes                   nprocs
 compute074.bc4.acrc.priv    1

 Using customized tuning parameters: mindgm=1; mindgv=20; mindgc=4; mindgr=1; noblas=0; minvec=7
 default implementation of scratch files=df  


 Variables initialized (924), CPU time= 0.01 sec
 memory,536,m
 
 geomtyp=xyz
 
 nosym
 noorient
 gdirect
 angstrom
 
 geometry=input.xyz
 Including file /mnt/storage/home/lb17101/optimizations/11/input.xyz
 
 set,charge=0
 
 basis=svp
 df-hf
 {cf-uks,pbe;}
 {optg,method=slrf,maxiter=50;
 constraint,1.200,angstrom,bond,atoms=[H11,C6]
 constraint,1.800,angstrom,bond,atoms=[H11,C17]
 constraint,180,deg,angle,atoms=[C6,H11,C17]
 {slopt;}}
 {cf-uks,pbe0;}
 {optg,method=slrf,maxiter=20;
 constraint,1.200,angstrom,bond,atoms=[H11,C6]
 constraint,1.800,angstrom,bond,atoms=[H11,C17]
 constraint,180,deg,angle,atoms=[C6,H11,C17]
 {slopt;}}
 {cf-uks,pbe;}
 basis=tzvp
 {cf-uks,pbe;}
 {cf-uks,pbe0;}
 {uks,pbe0;}
 {uks,b3lyp;}
 Commands  initialized (760), CPU time= 0.00 sec, 616 directives.
 Default parameters read. Elapsed time= 0.04 sec

 Checking input...
 Passed
1


                                         ***  PROGRAM SYSTEM MOLPRO  ***
                                       Copyright, TTI GmbH Stuttgart, 2015
                                    Version 2018.1 linked Oct 16 2018 14:32:03


 **********************************************************************************************************************************
 LABEL *                                                                                 
  64 bit serial version                                                                  DATE: 09-Nov-18          TIME: 16:07:54  
 **********************************************************************************************************************************

 SHA1:             d673ad554fd0a1ae99daa449513f8b88cca0f763
 **********************************************************************************************************************************
 SETTING GEOMTYP        =    XYZ

 Variable memory set to  536000000 words,  buffer space 

 ZSYMEL=NOSYM
 ZUNIT=ANG

 SETTING CHARGE         =     0.00000000D+00                                  
 SETTING BASIS          =    SVP


 Recomputing integrals since basis changed


 Using spherical harmonics

 Library entry C      S def2-SVP             selected for orbital group  1
 Library entry C      P def2-SVP             selected for orbital group  1
 Library entry C      D def2-SVP             selected for orbital group  1
 Library entry H      S def2-SVP             selected for orbital group  2
 Library entry H      P def2-SVP             selected for orbital group  2
 Library entry N      S def2-SVP             selected for orbital group  8
 Library entry N      P def2-SVP             selected for orbital group  8
 Library entry N      D def2-SVP             selected for orbital group  8


 PROGRAM * SEWARD (Integral evaluation for generally contracted gaussian basis sets)     Author: Roland Lindh, 1990

 Geometry written to block  1 of record 700


 Point group  C1  



 ATOMIC COORDINATES

 NR  ATOM    CHARGE       X              Y              Z

   1  C0      6.00  -15.623034457    4.456181068   -0.744963817
   2  C1      6.00  -12.754161497    4.471148812   -0.270646497
   3  H2      1.00  -16.050724045    4.674077832   -2.791508804
   4  H3      1.00  -16.572723553    6.025924871    0.266890858
   5  H4      1.00  -16.494424527    2.659733771   -0.105170181
   6  C5      6.00  -11.570266300    7.002201743   -1.086802570
   7  C6      6.00  -11.492126434    2.196457185   -1.416610084
   8  H7      1.00  -12.474168993    4.333386856    1.830631913
   9  H8      1.00  -11.763135953    7.285372778   -3.155238719
  10  H9      1.00   -9.533873707    7.111716548   -0.612814725
  11  H10     1.00  -12.520738188    8.609141184   -0.135413196
  12  H11     1.00  -13.007317023    2.744903906   -6.851534638
  13  H12     1.00  -12.665161079    0.480079678   -1.598889749
  14  C13     6.00   -8.691617909    1.890885500   -1.553555080
  15  H14     1.00   -7.738367918    3.530069106   -2.457983525
  16  H15     1.00   -8.137223237    0.166611698   -2.602303197
  17  H16     1.00   -7.827415309    1.731359762    0.371967837
  18  C17     6.00  -13.531628172    3.097804943   -8.831810575
  19  N18     7.00  -14.089116397    3.480071945  -10.933086168

 Bond lengths in Bohr (Angstrom)

 1-2  2.907857117  1-3  2.102080819  1-4  2.095198050  1-5  2.096635267  2-6  2.911004554
     ( 1.538771719)     ( 1.112373265)     ( 1.108731061)     ( 1.109491603)     ( 1.540437271)

  2- 7  2.842566981   2- 8  2.124322271   6- 9  2.096619336   6-10  2.093693570   6-11  2.095421895
       ( 1.504221667)       ( 1.124142935)       ( 1.109483172)       ( 1.107934924)       ( 1.108849514)

  7-13  2.086908695   7-14  2.820456698  12-18  2.078685669  14-15  2.100856790  14-16  2.092927664
       ( 1.104344523)       ( 1.492521409)       ( 1.099993085)       ( 1.111725537)       ( 1.107529624)

 14-17  2.116585245  18-19  2.207324240
       ( 1.120048677)       ( 1.168065685)

 Bond angles

  1-2-6  111.09939358   1-2-7  111.60137794   1-2-8  106.92075244   2-1-3  111.03911382

  2- 1- 4  111.38057269   2- 1- 5  111.38769550   2- 6- 9  110.89278884   2- 6-10  112.18344479

  2- 6-11  110.79429451   2- 7-13  116.34663244   2- 7-14  123.16888649   3- 1- 4  107.47545775

  3-1-5  107.53847579   4-1-5  107.82953177   6-2-7  113.71478466   6-2-8  106.26673734

  7- 2- 8  106.75971964   7-14-15  112.76201543   7-14-16  112.12347607   7-14-17  111.67904931

  9- 6-10  107.80351523   9- 6-11  107.61546168  10- 6-11  107.35429488  12-18-19  179.79963244

 13- 7-14  117.69536096  15-14-16  107.87231350  15-14-17  105.37802152  16-14-17  106.59532687

 NUCLEAR CHARGE:                   55
 NUMBER OF PRIMITIVE AOS:         259
 NUMBER OF SYMMETRY AOS:          252
 NUMBER OF CONTRACTIONS:          158   (  158A   )
 NUMBER OF CORE ORBITALS:           7   (    7A   )
 NUMBER OF VALENCE ORBITALS:       40   (   40A   )


 NUCLEAR REPULSION ENERGY  266.36079263


 Eigenvalues of metric

         1 0.186E-02 0.367E-02 0.455E-02 0.556E-02 0.740E-02 0.190E-01 0.201E-01 0.227E-01


 OPERATOR DM      FOR CENTER  0  COORDINATES:    0.000000    0.000000    0.000000


 **********************************************************************************************************************************
 DATASETS  * FILE   NREC   LENGTH (MB)   RECORD NAMES
              1      18       31.21       500      610      700      900      950      970     1000      129      960     1100   
                                          VAR    BASINP    GEOM    SYMINP    ZMAT    AOBASIS   BASIS     P2S    ABASIS      S 
                                         1400     1410     1200     1210     1080     1600     1650     1700   
                                           T        V       H0       H01     AOSYM     SMH    MOLCAS    OPER   

 PROGRAMS   *        TOTAL       INT
 CPU TIMES  *         0.40      0.29
 REAL TIME  *         0.69 SEC
 DISK USED  *        31.83 MB
 **********************************************************************************************************************************


 PROGRAM * RHF-SCF (OPEN SHELL)       Authors: W. Meyer, H.-J. Werner


 NUMBER OF ELECTRONS:      28+   27-    SPACE SYMMETRY=1    SPIN SYMMETRY: Doublet 
 CONVERGENCE THRESHOLDS:    1.00E-06 (Density)    1.00E-07 (Energy)
 INTEGRAL THRESHOLDS:       1.00E-11 (Initial)    1.00E-11 (Final)
 MAX. NUMBER OF ITERATIONS:       60
 INTERPOLATION TYPE:            DIIS
 INTERPOLATION STEPS:              2 (START)      1 (STEP)
 LEVEL SHIFTS:                 -0.60 (CLOSED) -0.30 (OPEN) 




 Basis set DEF2-SVP/JKFIT generated.     Number of basis functions:   560 

 Orbital guess generated from atomic densities. Full valence occupancy:   28
 Using density fitting in orbital guess

 Coulomb and exchange fitting
 Thresholds for fitting:       THRAO_COUL= 1.0D-14    THRAO_EXCH= 1.0D-12    THRMO= 1.0D-11    THRPROD= 1.0D-11    THRASM= 1.0D-11
                               THR2HLF=    1.0D-11

 Molecular orbital dump at record        2100.2

 Initial alpha occupancy:  28
 Initial beta  occupancy:  27
 Wave function symmetry:    1

 ITERATION   DDIFF            GRAD            ENERGY        2-EL.EN.            DIPOLE MOMENTS         DIIS   CPU(IT)  CPU(TOT)  ORB.
    1      0.000D+00      0.000D+00      -288.25515683    724.827716    0.67741   -0.23183    2.05219    0      0.7      1.5     start
    2      0.000D+00      0.406D-02      -288.33519995    721.922907    0.46565   -0.17005    1.54480    1      0.7      2.2     diag,B
    3      0.309D-02      0.158D-02      -288.35112100    722.030083    0.44885   -0.19605    1.57807    2      0.7      2.8     diag,B
    4      0.154D-02      0.759D-03      -288.35755801    721.990573    0.41407   -0.19475    1.51512    3      0.7      3.5     diag,B
    5      0.137D-02      0.213D-03      -288.35821314    721.956796    0.40924   -0.19627    1.50450    4      0.7      4.2     diag,B
    6      0.557D-03      0.747D-04      -288.35830788    721.929508    0.40777   -0.19595    1.49795    5      0.7      4.9     diag,B
    7      0.256D-03      0.223D-04      -288.35831674    721.921956    0.40736   -0.19545    1.49531    6      0.7      5.5     fixocc
    8      0.755D-04      0.734D-05      -288.35831791    721.921394    0.40711   -0.19509    1.49409    7      0.7      6.2     diag,B
    9      0.289D-04      0.264D-05      -288.35831809    721.921643    0.40702   -0.19494    1.49373    8      0.7      6.9     diag,B
   10      0.135D-04      0.845D-06      -288.35831811    721.921787    0.40701   -0.19490    1.49369    9      0.7      7.5     orth
   11      0.451D-05      0.308D-06      -288.35831812    721.921789    0.40701   -0.19489    1.49370    9      0.7      8.2     diag,B
   12      0.165D-05      0.106D-06      -288.35831812    721.921778    0.40701   -0.19489    1.49371    9      0.7      8.9     diag,B
   13      0.556D-06      0.365D-07      -288.35831812    721.921773    0.40701   -0.19489    1.49371    0      0.7      9.6     orth

 Final alpha occupancy:  28
 Final beta  occupancy:  27

 !RHF STATE  1.1 Energy              -288.358318116309
 Nuclear energy                       266.36079263
 One-electron energy                 -915.67999731
 Two-electron energy                  360.96088657
 Virial quotient                       -1.00689617
 !RHF STATE  1.1 Dipole moment          0.40700983    -0.19488966     1.49370591
 Dipole moment /Debye                   1.03444804    -0.49532765     3.79637307

 Orbital energies:

         1.1          2.1          3.1          4.1          5.1          6.1          7.1          8.1          9.1         10.1
    -15.598835   -11.299230   -11.247100   -11.242892   -11.238344   -11.236433   -11.235547    -1.211249    -1.086418    -0.990694

        11.1         12.1         13.1         14.1         15.1         16.1         17.1         18.1         19.1         20.1
     -0.926015    -0.848804    -0.786408    -0.740048    -0.636462    -0.618646    -0.596091    -0.571540    -0.562510    -0.548054

        21.1         22.1         23.1         24.1         25.1         26.1         27.1         28.1         29.1         30.1
     -0.539342    -0.524043    -0.487885    -0.486673    -0.485850    -0.480671    -0.474620    -0.357411     0.150175     0.166889


 HOMO     28.1    -0.357411 =      -9.7256eV
 LUMO     29.1     0.150175 =       4.0865eV
 LUMO-HOMO         0.507586 =      13.8121eV


 **********************************************************************************************************************************
 DATASETS  * FILE   NREC   LENGTH (MB)   RECORD NAMES
              1      18       31.21       500      610      700      900      950      970     1000      129      960     1100   
                                          VAR    BASINP    GEOM    SYMINP    ZMAT    AOBASIS   BASIS     P2S    ABASIS      S 
                                         1400     1410     1200     1210     1080     1600     1650     1700   
                                           T        V       H0       H01     AOSYM     SMH    MOLCAS    OPER   

              2       4        3.88       700     1000      520     2100   
                                         GEOM     BASIS   MCVARS     RHF  

 PROGRAMS   *        TOTAL     DF-HF       INT
 CPU TIMES  *         9.98      9.57      0.29
 REAL TIME  *        10.57 SEC
 DISK USED  *        68.27 MB
 **********************************************************************************************************************************

 Density functional group PBE=PBEX+PBEC
 Functional: PBEX(Automatically generated (new) PBEX)                          Gradient terms: 1
 Functional: PBEC(Automatically generated (new) PBEC)                          Gradient terms: 1
 Use libxcgrid:  F
 Use grid at  1800.2

 Functional: PBEX                      Factor:  1.0000
 Functional: PBEC                      Factor:  1.0000

 Generated new metagrid on record  1800.2 with target accuracy 1.0D-06 and 63368 points in CPU time    1.2
 Computed new grid on record 1800.1 in CPU time    1.3
  129907 words reserved for DFT integration

 PROGRAM * UKS-SCF (Unrestricted Kohn-Sham)     Authors: W. Meyer, H.-J. Werner, P.J. Knowles, 1993

 NUMBER OF ELECTRONS:      28+   27-    SPACE SYMMETRY=1    SPIN SYMMETRY: Doublet 
 CONVERGENCE THRESHOLDS:    1.00E-06 (Density)    1.00E-06 (Energy)
 INTEGRAL THRESHOLDS:       1.00E-11 (Initial)    1.00E-11 (Final)
 MAX. NUMBER OF ITERATIONS:       60
 INTERPOLATION TYPE:            DIIS
 INTERPOLATION STEPS:              2 (START)      1 (STEP)
 LEVEL SHIFTS:                 -0.20 (ALPHA)  -0.20 (BETA) 



 Use fine grid record 1800.2 for energy threshold  1.0D-06

 Basis set DEF2-SVP/JFIT generated.      Number of basis functions:   475 
 Coulomb fitting
 Screening thresholds:    THRAO_COUL= 1.0D-14    THRAO= 1.0D-12    THROV= 1.0D-12

 Reserved 6 MW to cache 100.0% of significant integrals. CPU: 0.3 sec

 Molecular orbitals read from record     2100.2  Type=RHF/CANONICAL (state 1.1)

 Molecular orbital dump at record        2200.2

 Initial alpha occupation  28
 Initial beta  occupation  27

 ITERATION    DDIFF          GRAD             ENERGY        2-EL.EN.            DIPOLE MOMENTS         DIIS  CPU(IT) CPU(TOT)
    1      0.000D+00      0.000D+00      -289.86338031    805.399339    0.40701   -0.19489    1.49371    0      0.5      0.8
    2      0.410D-02      0.216D-02      -289.90464828    808.460075    0.39267   -0.15660    1.39652    1      0.5      1.4
    3      0.138D-02      0.440D-03      -289.90832009    807.092031    0.39515   -0.15013    1.37627    2      0.5      1.9
    4      0.736D-03      0.193D-03      -289.90928625    807.607657    0.39620   -0.14593    1.35977    3      0.5      2.5
    5      0.317D-03      0.799D-04      -289.90941664    807.540764    0.41065   -0.15123    1.40292    4      0.6      3.0
    6      0.139D-03      0.852D-04      -289.90951198    807.475276    0.40415   -0.14524    1.37617    5      0.5      3.5
    7      0.877D-04      0.210D-04      -289.90952764    807.487587    0.40677   -0.14716    1.38437    6      0.5      4.1
    8      0.322D-04      0.767D-05      -289.90952980    807.489113    0.40708   -0.14633    1.38485    7      0.5      4.6
    9      0.137D-04      0.280D-05      -289.90953007    807.489415    0.40728   -0.14652    1.38516    8      0.5      5.2
   10      0.587D-05      0.126D-05      -289.90953012    807.488575    0.40728   -0.14649    1.38546    8      0.5      5.7
   11      0.209D-05      0.288D-06      -289.90953013    807.488592    0.40730   -0.14650    1.38548    8      0.5      6.2
   12      0.548D-06      0.101D-06      -289.90953013    807.488657    0.40729   -0.14651    1.38548    8      0.5      6.8
   13      0.246D-06      0.576D-07      -289.90953013    807.488604    0.40729   -0.14650    1.38548    7      0.5      7.3

 Final alpha occupancy:  28
 Final beta  occupancy:  27

 !UKS STATE  1.1 Energy              -289.909530127504
 Nuclear energy                       266.36079263
 One-electron energy                 -916.74881357
 Two-electron energy                  403.74430205
 Density functional                   -43.26581123     PBEX=-41.50719124 PBEC= -1.75861999
 Virial quotient                       -1.01213296
 !UKS STATE  1.1 Dipole moment          0.40729348    -0.14650224     1.38548143
 Dipole moment /Debye                   1.03516897    -0.37234717     3.52131190

 Orbital energies for positive spin:

         1.1          2.1          3.1          4.1          5.1          6.1          7.1          8.1          9.1         10.1
    -14.008857    -9.945506    -9.916599    -9.916383    -9.906908    -9.899206    -9.898927    -0.818171    -0.739444    -0.668274

        11.1         12.1         13.1         14.1         15.1         16.1         17.1         18.1         19.1         20.1
     -0.615751    -0.564916    -0.528204    -0.490481    -0.422246    -0.407436    -0.390805    -0.370654    -0.349641    -0.341960

        21.1         22.1         23.1         24.1         25.1         26.1         27.1         28.1         29.1         30.1
     -0.329817    -0.316695    -0.315015    -0.314832    -0.306718    -0.300985    -0.295007    -0.166837    -0.022049    -0.019550

 Orbital energies for negative spin:

         1.1          2.1          3.1          4.1          5.1          6.1          7.1          8.1          9.1         10.1
    -14.008855    -9.945347    -9.917068    -9.907631    -9.903915    -9.898794    -9.898759    -0.818097    -0.731702    -0.661270

        11.1         12.1         13.1         14.1         15.1         16.1         17.1         18.1         19.1         20.1
     -0.614885    -0.556877    -0.527454    -0.480492    -0.416740    -0.404752    -0.386556    -0.362132    -0.348957    -0.340894

        21.1         22.1         23.1         24.1         25.1         26.1         27.1         28.1         29.1         30.1
     -0.326922    -0.316607    -0.314891    -0.314738    -0.303315    -0.298871    -0.290429    -0.095617    -0.021851    -0.019360


 HOMO     28.1    -0.166837 =      -4.5399eV
 LUMO    -28.1    -0.095617 =      -2.6019eV
 LUMO-HOMO         0.071221 =       1.9380eV

 EXPECTATION VALUE OF S**2:             0.75333059

 Occupation number threshold for pseudo-canonical orbitals: 1.9990 (occupied), 0.0010 (virtual)

 Number of pseudo-canonical occupied orbitals per symmetry:   27
 Number of active natural orbitals per symmetry:               1

 Natural orbitals saved to record    2200.2 (Orbital set 3)

 Orbital spaces for UNO-CAS (Min. occupation: 0.020  Max. occupation: 1.980):

 Closed:       27
 Active:        1


 **********************************************************************************************************************************
 DATASETS  * FILE   NREC   LENGTH (MB)   RECORD NAMES
              1      19       33.24       500      610      700      900      950      970     1000      129      960     1100   
                                          VAR    BASINP    GEOM    SYMINP    ZMAT    AOBASIS   BASIS     P2S    ABASIS      S 
                                         1400     1410     1200     1210     1080     1600     1650     1700     1800   
                                           T        V       H0       H01     AOSYM     SMH    MOLCAS    OPER     GRID   

              2       6        7.61       700     1000      520     2100     1800     2200   
                                         GEOM     BASIS   MCVARS     RHF     GRID      UKS  

 PROGRAMS   *        TOTAL    DF-UKS     DF-HF       INT
 CPU TIMES  *        18.68      8.71      9.57      0.29
 REAL TIME  *        19.48 SEC
 DISK USED  *        68.27 MB
 **********************************************************************************************************************************


 PROGRAM * OPT (Geometry optimization)     Authors: F. Eckert and H.-J. Werner


 BFGS update of hessian


********** USER DEFINED INT/FIX/CONSTRAINTS ****************

List of primitive internal coordinates

     N      Name     Type   Natoms   Atom list

     1    Bo0001     Bond        2      H11  C6  
     2    Bo0002     Bond        2      H11  C17 
     3    An0001     Angle       3      C6   H11  C17 

List of user defined internal/fixed coordinates and constraints

- - - - - - - - - - - - - - - - - - - - - - - - - - - - - - - - - 
    N      Name   Type      Pname     Coeff       Value   Unit
- - - - - - - - - - - - - - - - - - - - - - - - - - - - - - - - - 
    1    Cns001    Con     Bo0001     1.000     1.20000 Angstrom
- - - - - - - - - - - - - - - - - - - - - - - - - - - - - - - - - 
    2    Cns002    Con     Bo0002     1.000     1.80000 Angstrom
- - - - - - - - - - - - - - - - - - - - - - - - - - - - - - - - - 
    3    Cns003    Con     An0001     1.000   180.00000   Degree
- - - - - - - - - - - - - - - - - - - - - - - - - - - - - - - - - 


******************************************************************



 *** Long output written to logfile /mnt/storage/home/lb17101/optimizations/11/11_1.20_1.80.log ***


 Geometry optimization using default procedure for command CF-UKS-SCF

 Geometry written to block  1 of record 700

 SLAPAF optimizer by R. Lindh and Ignacio F. Galvan entered

 Constraints section
ConstraintsConstraintsConstraintsConstraintsConstraintsConstraintsConstraintsConstraintsConstraintsConstraints
ConstraintsConstraintsConstraintsConstraintsConstraintsConstraintsConstraintsConstraintsConstraintsConstraints
Constraints                                                                                        Constraints
Constraints                                 C O N S T R A I N T S                                  Constraints
Constraints                                                                                        Constraints

************************************************************************************************************************
BO0001 = BOND       H11   C6
BO0002 = BOND       H11   C17
AN0001 = ANGLE      C6    H11   C17
VALUES
BO0001 =      1.20000000 ANGSTROM
BO0002 =      1.80000000 ANGSTROM
AN0001 =    180.00000000 DEGREE
************************************************************************************************************************


 *************************************************************
 * Values of the primitive constraints                       *
 *************************************************************
 BO0001   : Bond Length=  2.999786 / Angstrom  5.668774 / bohr
 BO0002   : Bond Length=  1.099993 / Angstrom  2.078686 / bohr
 AN0001   : Angle=      175.7129   / Degree    3.066769 / rad

 *******************************************
 * Values of the constraints   / au or rad *
 *******************************************
   Label        C         C0
 Cns001      5.668774  2.267671
 Cns002      2.078686  3.401507
 Cns003      3.066769  3.141593


 ITER.   ENERGY(OLD)    ENERGY(NEW)      DE          GRADMAX     GRADNORM    GRADRMS     STEPMAX     STEPLEN     STEPRMS   CPU-time
   1  -289.90953013  -289.90938459     0.00014554  0.00531371  0.00802366  0.00106276  0.25177027  0.53580379  0.00940007      9.36

 Constraints section
ConstraintsConstraintsConstraintsConstraintsConstraintsConstraintsConstraintsConstraintsConstraintsConstraints
ConstraintsConstraintsConstraintsConstraintsConstraintsConstraintsConstraintsConstraintsConstraintsConstraints
Constraints                                                                                        Constraints
Constraints                                 C O N S T R A I N T S                                  Constraints
Constraints                                                                                        Constraints

************************************************************************************************************************
BO0001 = BOND       H11   C6
BO0002 = BOND       H11   C17
AN0001 = ANGLE      C6    H11   C17
VALUES
BO0001 =      1.20000000 ANGSTROM
BO0002 =      1.80000000 ANGSTROM
AN0001 =    180.00000000 DEGREE
************************************************************************************************************************


 *************************************************************
 * Values of the primitive constraints                       *
 *************************************************************
 BO0001   : Bond Length=  2.996392 / Angstrom  5.662361 / bohr
 BO0002   : Bond Length=  1.101312 / Angstrom  2.081179 / bohr
 AN0001   : Angle=      175.7219   / Degree    3.066926 / rad

 *******************************************
 * Values of the constraints   / au or rad *
 *******************************************
   Label        C         C0
 Cns001      5.662361  2.267671
 Cns002      2.081179  3.401507
 Cns003      3.066926  3.141593

   2  -289.90938459  -289.90803987     0.00134472  0.00663730  0.01024208  0.00135660  0.42993420  0.93655201  0.01643074     19.60

 Constraints section
ConstraintsConstraintsConstraintsConstraintsConstraintsConstraintsConstraintsConstraintsConstraintsConstraints
ConstraintsConstraintsConstraintsConstraintsConstraintsConstraintsConstraintsConstraintsConstraintsConstraints
Constraints                                                                                        Constraints
Constraints                                 C O N S T R A I N T S                                  Constraints
Constraints                                                                                        Constraints

************************************************************************************************************************
BO0001 = BOND       H11   C6
BO0002 = BOND       H11   C17
AN0001 = ANGLE      C6    H11   C17
VALUES
BO0001 =      1.20000000 ANGSTROM
BO0002 =      1.80000000 ANGSTROM
AN0001 =    180.00000000 DEGREE
************************************************************************************************************************


 *************************************************************
 * Values of the primitive constraints                       *
 *************************************************************
 BO0001   : Bond Length=  2.966896 / Angstrom  5.606620 / bohr
 BO0002   : Bond Length=  1.112782 / Angstrom  2.102853 / bohr
 AN0001   : Angle=      175.7873   / Degree    3.068068 / rad

 *******************************************
 * Values of the constraints   / au or rad *
 *******************************************
   Label        C         C0
 Cns001      5.606620  2.267671
 Cns002      2.102853  3.401507
 Cns003      3.068068  3.141593

   3  -289.90803987  -289.90339793     0.00464194  0.01741796  0.02981805  0.00394950  0.24486763  0.67626891  0.01186437     30.03

 Constraints section
ConstraintsConstraintsConstraintsConstraintsConstraintsConstraintsConstraintsConstraintsConstraintsConstraints
ConstraintsConstraintsConstraintsConstraintsConstraintsConstraintsConstraintsConstraintsConstraintsConstraints
Constraints                                                                                        Constraints
Constraints                                 C O N S T R A I N T S                                  Constraints
Constraints                                                                                        Constraints

************************************************************************************************************************
BO0001 = BOND       H11   C6
BO0002 = BOND       H11   C17
AN0001 = ANGLE      C6    H11   C17
VALUES
BO0001 =      1.20000000 ANGSTROM
BO0002 =      1.80000000 ANGSTROM
AN0001 =    180.00000000 DEGREE
************************************************************************************************************************


 *************************************************************
 * Values of the primitive constraints                       *
 *************************************************************
 BO0001   : Bond Length=  2.898971 / Angstrom  5.478260 / bohr
 BO0002   : Bond Length=  1.139087 / Angstrom  2.152562 / bohr
 AN0001   : Angle=      175.8644   / Degree    3.069412 / rad

 *******************************************
 * Values of the constraints   / au or rad *
 *******************************************
   Label        C         C0
 Cns001      5.478260  2.267671
 Cns002      2.152562  3.401507
 Cns003      3.069412  3.141593

   4  -289.90339793  -289.90078883     0.00260909  0.02973617  0.06695054  0.00886782  0.22579210  0.50438523  0.00884886     39.89

 Constraints section
ConstraintsConstraintsConstraintsConstraintsConstraintsConstraintsConstraintsConstraintsConstraintsConstraints
ConstraintsConstraintsConstraintsConstraintsConstraintsConstraintsConstraintsConstraintsConstraintsConstraints
Constraints                                                                                        Constraints
Constraints                                 C O N S T R A I N T S                                  Constraints
Constraints                                                                                        Constraints

************************************************************************************************************************
BO0001 = BOND       H11   C6
BO0002 = BOND       H11   C17
AN0001 = ANGLE      C6    H11   C17
VALUES
BO0001 =      1.20000000 ANGSTROM
BO0002 =      1.80000000 ANGSTROM
AN0001 =    180.00000000 DEGREE
************************************************************************************************************************


 *************************************************************
 * Values of the primitive constraints                       *
 *************************************************************
 BO0001   : Bond Length=  2.764744 / Angstrom  5.224609 / bohr
 BO0002   : Bond Length=  1.191258 / Angstrom  2.251151 / bohr
 AN0001   : Angle=      176.2131   / Degree    3.075498 / rad

 *******************************************
 * Values of the constraints   / au or rad *
 *******************************************
   Label        C         C0
 Cns001      5.224609  2.267671
 Cns002      2.251151  3.401507
 Cns003      3.075498  3.141593

   5  -289.90078883  -289.90029829     0.00049055  0.05337873  0.08716192  0.01154488  0.08586264  0.20023376  0.00351287     49.27

 Constraints section
ConstraintsConstraintsConstraintsConstraintsConstraintsConstraintsConstraintsConstraintsConstraintsConstraints
ConstraintsConstraintsConstraintsConstraintsConstraintsConstraintsConstraintsConstraintsConstraintsConstraints
Constraints                                                                                        Constraints
Constraints                                 C O N S T R A I N T S                                  Constraints
Constraints                                                                                        Constraints

************************************************************************************************************************
BO0001 = BOND       H11   C6
BO0002 = BOND       H11   C17
AN0001 = ANGLE      C6    H11   C17
VALUES
BO0001 =      1.20000000 ANGSTROM
BO0002 =      1.80000000 ANGSTROM
AN0001 =    180.00000000 DEGREE
************************************************************************************************************************


 *************************************************************
 * Values of the primitive constraints                       *
 *************************************************************
 BO0001   : Bond Length=  2.758388 / Angstrom  5.212598 / bohr
 BO0002   : Bond Length=  1.193731 / Angstrom  2.255824 / bohr
 AN0001   : Angle=      176.2279   / Degree    3.075757 / rad

 *******************************************
 * Values of the constraints   / au or rad *
 *******************************************
   Label        C         C0
 Cns001      5.212598  2.267671
 Cns002      2.255824  3.401507
 Cns003      3.075757  3.141593

   6  -289.90029829  -289.89968416     0.00061413  0.05355172  0.08804871  0.01166234  0.08966487  0.20947116  0.00367493     58.72

 Constraints section
ConstraintsConstraintsConstraintsConstraintsConstraintsConstraintsConstraintsConstraintsConstraintsConstraints
ConstraintsConstraintsConstraintsConstraintsConstraintsConstraintsConstraintsConstraintsConstraintsConstraints
Constraints                                                                                        Constraints
Constraints                                 C O N S T R A I N T S                                  Constraints
Constraints                                                                                        Constraints

************************************************************************************************************************
BO0001 = BOND       H11   C6
BO0002 = BOND       H11   C17
AN0001 = ANGLE      C6    H11   C17
VALUES
BO0001 =      1.20000000 ANGSTROM
BO0002 =      1.80000000 ANGSTROM
AN0001 =    180.00000000 DEGREE
************************************************************************************************************************


 *************************************************************
 * Values of the primitive constraints                       *
 *************************************************************
 BO0001   : Bond Length=  2.751141 / Angstrom  5.198903 / bohr
 BO0002   : Bond Length=  1.196551 / Angstrom  2.261153 / bohr
 AN0001   : Angle=      176.2453   / Degree    3.076060 / rad

 *******************************************
 * Values of the constraints   / au or rad *
 *******************************************
   Label        C         C0
 Cns001      5.198903  2.267671
 Cns002      2.261153  3.401507
 Cns003      3.076060  3.141593

   7  -289.89968416  -289.89911659     0.00056757  0.05419411  0.08939178  0.01184023  0.07472335  0.17484014  0.00306737     68.24

 Constraints section
ConstraintsConstraintsConstraintsConstraintsConstraintsConstraintsConstraintsConstraintsConstraintsConstraints
ConstraintsConstraintsConstraintsConstraintsConstraintsConstraintsConstraintsConstraintsConstraintsConstraints
Constraints                                                                                        Constraints
Constraints                                 C O N S T R A I N T S                                  Constraints
Constraints                                                                                        Constraints

************************************************************************************************************************
BO0001 = BOND       H11   C6
BO0002 = BOND       H11   C17
AN0001 = ANGLE      C6    H11   C17
VALUES
BO0001 =      1.20000000 ANGSTROM
BO0002 =      1.80000000 ANGSTROM
AN0001 =    180.00000000 DEGREE
************************************************************************************************************************


 *************************************************************
 * Values of the primitive constraints                       *
 *************************************************************
 BO0001   : Bond Length=  2.744613 / Angstrom  5.186566 / bohr
 BO0002   : Bond Length=  1.199091 / Angstrom  2.265953 / bohr
 AN0001   : Angle=      176.2611   / Degree    3.076337 / rad

 *******************************************
 * Values of the constraints   / au or rad *
 *******************************************
   Label        C         C0
 Cns001      5.186566  2.267671
 Cns002      2.265953  3.401507
 Cns003      3.076337  3.141593

   8  -289.89911659  -289.89838796     0.00072863  0.05481250  0.09070595  0.01201430  0.08423986  0.20129675  0.00353152     77.13

 Constraints section
ConstraintsConstraintsConstraintsConstraintsConstraintsConstraintsConstraintsConstraintsConstraintsConstraints
ConstraintsConstraintsConstraintsConstraintsConstraintsConstraintsConstraintsConstraintsConstraintsConstraints
Constraints                                                                                        Constraints
Constraints                                 C O N S T R A I N T S                                  Constraints
Constraints                                                                                        Constraints

************************************************************************************************************************
BO0001 = BOND       H11   C6
BO0002 = BOND       H11   C17
AN0001 = ANGLE      C6    H11   C17
VALUES
BO0001 =      1.20000000 ANGSTROM
BO0002 =      1.80000000 ANGSTROM
AN0001 =    180.00000000 DEGREE
************************************************************************************************************************


 *************************************************************
 * Values of the primitive constraints                       *
 *************************************************************
 BO0001   : Bond Length=  2.739291 / Angstrom  5.176511 / bohr
 BO0002   : Bond Length=  1.201162 / Angstrom  2.269867 / bohr
 AN0001   : Angle=      176.2743   / Degree    3.076567 / rad

 *******************************************
 * Values of the constraints   / au or rad *
 *******************************************
   Label        C         C0
 Cns001      5.176511  2.267671
 Cns002      2.269867  3.401507
 Cns003      3.076567  3.141593

   9  -289.89838796  -289.89783492     0.00055304  0.05362382  0.09135598  0.01210040  0.07773576  0.18288169  0.00320845     86.00

 Constraints section
ConstraintsConstraintsConstraintsConstraintsConstraintsConstraintsConstraintsConstraintsConstraintsConstraints
ConstraintsConstraintsConstraintsConstraintsConstraintsConstraintsConstraintsConstraintsConstraintsConstraints
Constraints                                                                                        Constraints
Constraints                                 C O N S T R A I N T S                                  Constraints
Constraints                                                                                        Constraints

************************************************************************************************************************
BO0001 = BOND       H11   C6
BO0002 = BOND       H11   C17
AN0001 = ANGLE      C6    H11   C17
VALUES
BO0001 =      1.20000000 ANGSTROM
BO0002 =      1.80000000 ANGSTROM
AN0001 =    180.00000000 DEGREE
************************************************************************************************************************


 *************************************************************
 * Values of the primitive constraints                       *
 *************************************************************
 BO0001   : Bond Length=  2.733766 / Angstrom  5.166070 / bohr
 BO0002   : Bond Length=  1.203312 / Angstrom  2.273929 / bohr
 AN0001   : Angle=      176.2872   / Degree    3.076792 / rad

 *******************************************
 * Values of the constraints   / au or rad *
 *******************************************
   Label        C         C0
 Cns001      5.166070  2.267671
 Cns002      2.273929  3.401507
 Cns003      3.076792  3.141593

  10  -289.89783492  -289.89698127     0.00085365  0.05211679  0.09123559  0.01208445  0.14951339  0.34571530  0.00606518     95.38

 Constraints section
ConstraintsConstraintsConstraintsConstraintsConstraintsConstraintsConstraintsConstraintsConstraintsConstraints
ConstraintsConstraintsConstraintsConstraintsConstraintsConstraintsConstraintsConstraintsConstraintsConstraints
Constraints                                                                                        Constraints
Constraints                                 C O N S T R A I N T S                                  Constraints
Constraints                                                                                        Constraints

************************************************************************************************************************
BO0001 = BOND       H11   C6
BO0002 = BOND       H11   C17
AN0001 = ANGLE      C6    H11   C17
VALUES
BO0001 =      1.20000000 ANGSTROM
BO0002 =      1.80000000 ANGSTROM
AN0001 =    180.00000000 DEGREE
************************************************************************************************************************


 *************************************************************
 * Values of the primitive constraints                       *
 *************************************************************
 BO0001   : Bond Length=  2.726105 / Angstrom  5.151592 / bohr
 BO0002   : Bond Length=  1.206292 / Angstrom  2.279561 / bohr
 AN0001   : Angle=      176.3050   / Degree    3.077103 / rad

 *******************************************
 * Values of the constraints   / au or rad *
 *******************************************
   Label        C         C0
 Cns001      5.151592  2.267671
 Cns002      2.279561  3.401507
 Cns003      3.077103  3.141593

  11  -289.89698127  -289.89643442     0.00054685  0.05545000  0.09390486  0.01243800  0.08621077  0.20088028  0.00352422    104.18

 Constraints section
ConstraintsConstraintsConstraintsConstraintsConstraintsConstraintsConstraintsConstraintsConstraintsConstraints
ConstraintsConstraintsConstraintsConstraintsConstraintsConstraintsConstraintsConstraintsConstraintsConstraints
Constraints                                                                                        Constraints
Constraints                                 C O N S T R A I N T S                                  Constraints
Constraints                                                                                        Constraints

************************************************************************************************************************
BO0001 = BOND       H11   C6
BO0002 = BOND       H11   C17
AN0001 = ANGLE      C6    H11   C17
VALUES
BO0001 =      1.20000000 ANGSTROM
BO0002 =      1.80000000 ANGSTROM
AN0001 =    180.00000000 DEGREE
************************************************************************************************************************


 *************************************************************
 * Values of the primitive constraints                       *
 *************************************************************
 BO0001   : Bond Length=  2.720755 / Angstrom  5.141481 / bohr
 BO0002   : Bond Length=  1.208373 / Angstrom  2.283495 / bohr
 AN0001   : Angle=      176.3182   / Degree    3.077332 / rad

 *******************************************
 * Values of the constraints   / au or rad *
 *******************************************
   Label        C         C0
 Cns001      5.141481  2.267671
 Cns002      2.283495  3.401507
 Cns003      3.077332  3.141593

  12  -289.89643442  -289.89587572     0.00055871  0.05376699  0.09343966  0.01237639  0.07842239  0.18711119  0.00328265    113.08

 Constraints section
ConstraintsConstraintsConstraintsConstraintsConstraintsConstraintsConstraintsConstraintsConstraintsConstraints
ConstraintsConstraintsConstraintsConstraintsConstraintsConstraintsConstraintsConstraintsConstraintsConstraints
Constraints                                                                                        Constraints
Constraints                                 C O N S T R A I N T S                                  Constraints
Constraints                                                                                        Constraints

************************************************************************************************************************
BO0001 = BOND       H11   C6
BO0002 = BOND       H11   C17
AN0001 = ANGLE      C6    H11   C17
VALUES
BO0001 =      1.20000000 ANGSTROM
BO0002 =      1.80000000 ANGSTROM
AN0001 =    180.00000000 DEGREE
************************************************************************************************************************


 *************************************************************
 * Values of the primitive constraints                       *
 *************************************************************
 BO0001   : Bond Length=  2.715631 / Angstrom  5.131799 / bohr
 BO0002   : Bond Length=  1.210367 / Angstrom  2.287262 / bohr
 AN0001   : Angle=      176.3304   / Degree    3.077546 / rad

 *******************************************
 * Values of the constraints   / au or rad *
 *******************************************
   Label        C         C0
 Cns001      5.131799  2.267671
 Cns002      2.287262  3.401507
 Cns003      3.077546  3.141593

  13  -289.89587572  -289.89509999     0.00077572  0.05608665  0.09571872  0.01267825  0.11749949  0.28224462  0.00495166    122.49

 Constraints section
ConstraintsConstraintsConstraintsConstraintsConstraintsConstraintsConstraintsConstraintsConstraintsConstraints
ConstraintsConstraintsConstraintsConstraintsConstraintsConstraintsConstraintsConstraintsConstraintsConstraints
Constraints                                                                                        Constraints
Constraints                                 C O N S T R A I N T S                                  Constraints
Constraints                                                                                        Constraints

************************************************************************************************************************
BO0001 = BOND       H11   C6
BO0002 = BOND       H11   C17
AN0001 = ANGLE      C6    H11   C17
VALUES
BO0001 =      1.20000000 ANGSTROM
BO0002 =      1.80000000 ANGSTROM
AN0001 =    180.00000000 DEGREE
************************************************************************************************************************


 *************************************************************
 * Values of the primitive constraints                       *
 *************************************************************
 BO0001   : Bond Length=  2.707880 / Angstrom  5.117152 / bohr
 BO0002   : Bond Length=  1.213382 / Angstrom  2.292960 / bohr
 AN0001   : Angle=      176.3498   / Degree    3.077884 / rad

 *******************************************
 * Values of the constraints   / au or rad *
 *******************************************
   Label        C         C0
 Cns001      5.117152  2.267671
 Cns002      2.292960  3.401507
 Cns003      3.077884  3.141593

  14  -289.89509999  -289.88645085     0.00864915  0.05659284  0.09690848  0.01283584  0.37229720  1.12508748  0.01973838    133.14

 Constraints section
ConstraintsConstraintsConstraintsConstraintsConstraintsConstraintsConstraintsConstraintsConstraintsConstraints
ConstraintsConstraintsConstraintsConstraintsConstraintsConstraintsConstraintsConstraintsConstraintsConstraints
Constraints                                                                                        Constraints
Constraints                                 C O N S T R A I N T S                                  Constraints
Constraints                                                                                        Constraints

************************************************************************************************************************
BO0001 = BOND       H11   C6
BO0002 = BOND       H11   C17
AN0001 = ANGLE      C6    H11   C17
VALUES
BO0001 =      1.20000000 ANGSTROM
BO0002 =      1.80000000 ANGSTROM
AN0001 =    180.00000000 DEGREE
************************************************************************************************************************


 *************************************************************
 * Values of the primitive constraints                       *
 *************************************************************
 BO0001   : Bond Length=  2.640541 / Angstrom  4.989900 / bohr
 BO0002   : Bond Length=  1.239509 / Angstrom  2.342333 / bohr
 AN0001   : Angle=      176.2696   / Degree    3.076485 / rad

 *******************************************
 * Values of the constraints   / au or rad *
 *******************************************
   Label        C         C0
 Cns001      4.989900  2.267671
 Cns002      2.342333  3.401507
 Cns003      3.076485  3.141593

  15  -289.88645085  -289.87359465     0.01285620  0.06068419  0.12445987  0.01648511  0.56250440  1.00650263  0.01765794    143.97

 Constraints section
ConstraintsConstraintsConstraintsConstraintsConstraintsConstraintsConstraintsConstraintsConstraintsConstraints
ConstraintsConstraintsConstraintsConstraintsConstraintsConstraintsConstraintsConstraintsConstraintsConstraints
Constraints                                                                                        Constraints
Constraints                                 C O N S T R A I N T S                                  Constraints
Constraints                                                                                        Constraints

************************************************************************************************************************
BO0001 = BOND       H11   C6
BO0002 = BOND       H11   C17
AN0001 = ANGLE      C6    H11   C17
VALUES
BO0001 =      1.20000000 ANGSTROM
BO0002 =      1.80000000 ANGSTROM
AN0001 =    180.00000000 DEGREE
************************************************************************************************************************


 *************************************************************
 * Values of the primitive constraints                       *
 *************************************************************
 BO0001   : Bond Length=  2.320948 / Angstrom  4.385957 / bohr
 BO0002   : Bond Length=  1.363858 / Angstrom  2.577317 / bohr
 AN0001   : Angle=      175.8169   / Degree    3.068585 / rad

 *******************************************
 * Values of the constraints   / au or rad *
 *******************************************
   Label        C         C0
 Cns001      4.385957  2.267671
 Cns002      2.577317  3.401507
 Cns003      3.068585  3.141593

  16  -289.87359465  -289.87546043    -0.00186578  0.07133138  0.12888578  0.01707134  0.30314480  0.92930677  0.01630363    154.64

 Constraints section
ConstraintsConstraintsConstraintsConstraintsConstraintsConstraintsConstraintsConstraintsConstraintsConstraints
ConstraintsConstraintsConstraintsConstraintsConstraintsConstraintsConstraintsConstraintsConstraintsConstraints
Constraints                                                                                        Constraints
Constraints                                 C O N S T R A I N T S                                  Constraints
Constraints                                                                                        Constraints

************************************************************************************************************************
BO0001 = BOND       H11   C6
BO0002 = BOND       H11   C17
AN0001 = ANGLE      C6    H11   C17
VALUES
BO0001 =      1.20000000 ANGSTROM
BO0002 =      1.80000000 ANGSTROM
AN0001 =    180.00000000 DEGREE
************************************************************************************************************************


 *************************************************************
 * Values of the primitive constraints                       *
 *************************************************************
 BO0001   : Bond Length=  2.238310 / Angstrom  4.229792 / bohr
 BO0002   : Bond Length=  1.396011 / Angstrom  2.638079 / bohr
 AN0001   : Angle=      176.1147   / Degree    3.073781 / rad

 *******************************************
 * Values of the constraints   / au or rad *
 *******************************************
   Label        C         C0
 Cns001      4.229792  2.267671
 Cns002      2.638079  3.401507
 Cns003      3.073781  3.141593

  17  -289.87546043  -289.86575554     0.00970489  0.07069768  0.09991439  0.01323398  0.26184159  0.61179765  0.01073329    165.53

 Constraints section
ConstraintsConstraintsConstraintsConstraintsConstraintsConstraintsConstraintsConstraintsConstraintsConstraints
ConstraintsConstraintsConstraintsConstraintsConstraintsConstraintsConstraintsConstraintsConstraintsConstraints
Constraints                                                                                        Constraints
Constraints                                 C O N S T R A I N T S                                  Constraints
Constraints                                                                                        Constraints

************************************************************************************************************************
BO0001 = BOND       H11   C6
BO0002 = BOND       H11   C17
AN0001 = ANGLE      C6    H11   C17
VALUES
BO0001 =      1.20000000 ANGSTROM
BO0002 =      1.80000000 ANGSTROM
AN0001 =    180.00000000 DEGREE
************************************************************************************************************************


 *************************************************************
 * Values of the primitive constraints                       *
 *************************************************************
 BO0001   : Bond Length=  2.096251 / Angstrom  3.961340 / bohr
 BO0002   : Bond Length=  1.451284 / Angstrom  2.742529 / bohr
 AN0001   : Angle=      176.6384   / Degree    3.082922 / rad

 *******************************************
 * Values of the constraints   / au or rad *
 *******************************************
   Label        C         C0
 Cns001      3.961340  2.267671
 Cns002      2.742529  3.401507
 Cns003      3.082922  3.141593

  18  -289.86575554  -289.86200447     0.00375107  0.06596986  0.10126204  0.01341248  0.13435952  0.32299237  0.00566653    175.92

 Constraints section
ConstraintsConstraintsConstraintsConstraintsConstraintsConstraintsConstraintsConstraintsConstraintsConstraints
ConstraintsConstraintsConstraintsConstraintsConstraintsConstraintsConstraintsConstraintsConstraintsConstraints
Constraints                                                                                        Constraints
Constraints                                 C O N S T R A I N T S                                  Constraints
Constraints                                                                                        Constraints

************************************************************************************************************************
BO0001 = BOND       H11   C6
BO0002 = BOND       H11   C17
AN0001 = ANGLE      C6    H11   C17
VALUES
BO0001 =      1.20000000 ANGSTROM
BO0002 =      1.80000000 ANGSTROM
AN0001 =    180.00000000 DEGREE
************************************************************************************************************************


 *************************************************************
 * Values of the primitive constraints                       *
 *************************************************************
 BO0001   : Bond Length=  2.022316 / Angstrom  3.821623 / bohr
 BO0002   : Bond Length=  1.480051 / Angstrom  2.796891 / bohr
 AN0001   : Angle=      176.9156   / Degree    3.087760 / rad

 *******************************************
 * Values of the constraints   / au or rad *
 *******************************************
   Label        C         C0
 Cns001      3.821623  2.267671
 Cns002      2.796891  3.401507
 Cns003      3.087760  3.141593

  19  -289.86200447  -289.85189545     0.01010902  0.06308695  0.09632652  0.01275876  0.24696007  0.76855206  0.01348337    187.07

 Constraints section
ConstraintsConstraintsConstraintsConstraintsConstraintsConstraintsConstraintsConstraintsConstraintsConstraints
ConstraintsConstraintsConstraintsConstraintsConstraintsConstraintsConstraintsConstraintsConstraintsConstraints
Constraints                                                                                        Constraints
Constraints                                 C O N S T R A I N T S                                  Constraints
Constraints                                                                                        Constraints

************************************************************************************************************************
BO0001 = BOND       H11   C6
BO0002 = BOND       H11   C17
AN0001 = ANGLE      C6    H11   C17
VALUES
BO0001 =      1.20000000 ANGSTROM
BO0002 =      1.80000000 ANGSTROM
AN0001 =    180.00000000 DEGREE
************************************************************************************************************************


 *************************************************************
 * Values of the primitive constraints                       *
 *************************************************************
 BO0001   : Bond Length=  1.948380 / Angstrom  3.681905 / bohr
 BO0002   : Bond Length=  1.508818 / Angstrom  2.851252 / bohr
 AN0001   : Angle=      176.9798   / Degree    3.088879 / rad

 *******************************************
 * Values of the constraints   / au or rad *
 *******************************************
   Label        C         C0
 Cns001      3.681905  2.267671
 Cns002      2.851252  3.401507
 Cns003      3.088879  3.141593

  20  -289.85189545  -289.85451481    -0.00261936  0.08590523  0.12484092  0.01653558  0.29274937  0.80158454  0.01406289    198.47

 Constraints section
ConstraintsConstraintsConstraintsConstraintsConstraintsConstraintsConstraintsConstraintsConstraintsConstraints
ConstraintsConstraintsConstraintsConstraintsConstraintsConstraintsConstraintsConstraintsConstraintsConstraints
Constraints                                                                                        Constraints
Constraints                                 C O N S T R A I N T S                                  Constraints
Constraints                                                                                        Constraints

************************************************************************************************************************
BO0001 = BOND       H11   C6
BO0002 = BOND       H11   C17
AN0001 = ANGLE      C6    H11   C17
VALUES
BO0001 =      1.20000000 ANGSTROM
BO0002 =      1.80000000 ANGSTROM
AN0001 =    180.00000000 DEGREE
************************************************************************************************************************


 *************************************************************
 * Values of the primitive constraints                       *
 *************************************************************
 BO0001   : Bond Length=  1.819172 / Angstrom  3.437738 / bohr
 BO0002   : Bond Length=  1.559090 / Angstrom  2.946254 / bohr
 AN0001   : Angle=      177.3042   / Degree    3.094542 / rad

 *******************************************
 * Values of the constraints   / au or rad *
 *******************************************
   Label        C         C0
 Cns001      3.437738  2.267671
 Cns002      2.946254  3.401507
 Cns003      3.094542  3.141593

  21  -289.85451481  -289.85345955     0.00105526  0.05318517  0.08802496  0.01165919  0.15599183  0.38110243  0.00668601    209.97

 Constraints section
ConstraintsConstraintsConstraintsConstraintsConstraintsConstraintsConstraintsConstraintsConstraintsConstraints
ConstraintsConstraintsConstraintsConstraintsConstraintsConstraintsConstraintsConstraintsConstraintsConstraints
Constraints                                                                                        Constraints
Constraints                                 C O N S T R A I N T S                                  Constraints
Constraints                                                                                        Constraints

************************************************************************************************************************
BO0001 = BOND       H11   C6
BO0002 = BOND       H11   C17
AN0001 = ANGLE      C6    H11   C17
VALUES
BO0001 =      1.20000000 ANGSTROM
BO0002 =      1.80000000 ANGSTROM
AN0001 =    180.00000000 DEGREE
************************************************************************************************************************


 *************************************************************
 * Values of the primitive constraints                       *
 *************************************************************
 BO0001   : Bond Length=  1.714477 / Angstrom  3.239891 / bohr
 BO0002   : Bond Length=  1.599826 / Angstrom  3.023232 / bohr
 AN0001   : Angle=      177.4490   / Degree    3.097069 / rad

 *******************************************
 * Values of the constraints   / au or rad *
 *******************************************
   Label        C         C0
 Cns001      3.239891  2.267671
 Cns002      3.023232  3.401507
 Cns003      3.097069  3.141593

  22  -289.85345955  -289.85453935    -0.00107980  0.06227753  0.09435156  0.01249717  0.23440700  0.64483244  0.01131285    221.16

 Constraints section
ConstraintsConstraintsConstraintsConstraintsConstraintsConstraintsConstraintsConstraintsConstraintsConstraints
ConstraintsConstraintsConstraintsConstraintsConstraintsConstraintsConstraintsConstraintsConstraintsConstraints
Constraints                                                                                        Constraints
Constraints                                 C O N S T R A I N T S                                  Constraints
Constraints                                                                                        Constraints

************************************************************************************************************************
BO0001 = BOND       H11   C6
BO0002 = BOND       H11   C17
AN0001 = ANGLE      C6    H11   C17
VALUES
BO0001 =      1.20000000 ANGSTROM
BO0002 =      1.80000000 ANGSTROM
AN0001 =    180.00000000 DEGREE
************************************************************************************************************************


 *************************************************************
 * Values of the primitive constraints                       *
 *************************************************************
 BO0001   : Bond Length=  1.640570 / Angstrom  3.100229 / bohr
 BO0002   : Bond Length=  1.628581 / Angstrom  3.077573 / bohr
 AN0001   : Angle=      177.1349   / Degree    3.091587 / rad

 *******************************************
 * Values of the constraints   / au or rad *
 *******************************************
   Label        C         C0
 Cns001      3.100229  2.267671
 Cns002      3.077573  3.401507
 Cns003      3.091587  3.141593

  23  -289.85453935  -289.85812772    -0.00358837  0.07354705  0.11271697  0.01492973  0.47421575  1.11315632  0.01952906    233.24

 Constraints section
ConstraintsConstraintsConstraintsConstraintsConstraintsConstraintsConstraintsConstraintsConstraintsConstraints
ConstraintsConstraintsConstraintsConstraintsConstraintsConstraintsConstraintsConstraintsConstraintsConstraints
Constraints                                                                                        Constraints
Constraints                                 C O N S T R A I N T S                                  Constraints
Constraints                                                                                        Constraints

************************************************************************************************************************
BO0001 = BOND       H11   C6
BO0002 = BOND       H11   C17
AN0001 = ANGLE      C6    H11   C17
VALUES
BO0001 =      1.20000000 ANGSTROM
BO0002 =      1.80000000 ANGSTROM
AN0001 =    180.00000000 DEGREE
************************************************************************************************************************


 *************************************************************
 * Values of the primitive constraints                       *
 *************************************************************
 BO0001   : Bond Length=  1.556482 / Angstrom  2.941325 / bohr
 BO0002   : Bond Length=  1.661299 / Angstrom  3.139400 / bohr
 AN0001   : Angle=      177.4331   / Degree    3.096792 / rad

 *******************************************
 * Values of the constraints   / au or rad *
 *******************************************
   Label        C         C0
 Cns001      2.941325  2.267671
 Cns002      3.139400  3.401507
 Cns003      3.096792  3.141593

  24  -289.85812772  -289.86246606    -0.00433833  0.05033134  0.09722835  0.01287821  0.25661471  0.69978106  0.01227686    245.16

 Constraints section
ConstraintsConstraintsConstraintsConstraintsConstraintsConstraintsConstraintsConstraintsConstraintsConstraints
ConstraintsConstraintsConstraintsConstraintsConstraintsConstraintsConstraintsConstraintsConstraintsConstraints
Constraints                                                                                        Constraints
Constraints                                 C O N S T R A I N T S                                  Constraints
Constraints                                                                                        Constraints

************************************************************************************************************************
BO0001 = BOND       H11   C6
BO0002 = BOND       H11   C17
AN0001 = ANGLE      C6    H11   C17
VALUES
BO0001 =      1.20000000 ANGSTROM
BO0002 =      1.80000000 ANGSTROM
AN0001 =    180.00000000 DEGREE
************************************************************************************************************************


 *************************************************************
 * Values of the primitive constraints                       *
 *************************************************************
 BO0001   : Bond Length=  1.405469 / Angstrom  2.655952 / bohr
 BO0002   : Bond Length=  1.720055 / Angstrom  3.250434 / bohr
  Valence angle close to end in range of definition
 AN0001   : Angle=      178.4299   / Degree    3.114189 / rad

 *******************************************
 * Values of the constraints   / au or rad *
 *******************************************
   Label        C         C0
 Cns001      2.655952  2.267671
 Cns002      3.250434  3.401507
 Cns003      3.114189  3.141593

  25  -289.86246606  -289.86995458    -0.00748852  0.06015304  0.09022302  0.01195033  0.26754606  0.67310450  0.01180885    256.99

 Constraints section
ConstraintsConstraintsConstraintsConstraintsConstraintsConstraintsConstraintsConstraintsConstraintsConstraints
ConstraintsConstraintsConstraintsConstraintsConstraintsConstraintsConstraintsConstraintsConstraintsConstraints
Constraints                                                                                        Constraints
Constraints                                 C O N S T R A I N T S                                  Constraints
Constraints                                                                                        Constraints

************************************************************************************************************************
BO0001 = BOND       H11   C6
BO0002 = BOND       H11   C17
AN0001 = ANGLE      C6    H11   C17
VALUES
BO0001 =      1.20000000 ANGSTROM
BO0002 =      1.80000000 ANGSTROM
AN0001 =    180.00000000 DEGREE
************************************************************************************************************************


 *************************************************************
 * Values of the primitive constraints                       *
 *************************************************************
 BO0001   : Bond Length=  1.301403 / Angstrom  2.459295 / bohr
 BO0002   : Bond Length=  1.760546 / Angstrom  3.326949 / bohr
  Valence angle close to end in range of definition
 AN0001   : Angle=      178.3065   / Degree    3.112035 / rad

 *******************************************
 * Values of the constraints   / au or rad *
 *******************************************
   Label        C         C0
 Cns001      2.459295  2.267671
 Cns002      3.326949  3.401507
 Cns003      3.112035  3.141593

  26  -289.86995458  -289.87309805    -0.00314348  0.06154148  0.09638316  0.01276626  0.25501887  0.47139734  0.00827013    268.62

 Constraints section
ConstraintsConstraintsConstraintsConstraintsConstraintsConstraintsConstraintsConstraintsConstraintsConstraints
ConstraintsConstraintsConstraintsConstraintsConstraintsConstraintsConstraintsConstraintsConstraintsConstraints
Constraints                                                                                        Constraints
Constraints                                 C O N S T R A I N T S                                  Constraints
Constraints                                                                                        Constraints

************************************************************************************************************************
BO0001 = BOND       H11   C6
BO0002 = BOND       H11   C17
AN0001 = ANGLE      C6    H11   C17
VALUES
BO0001 =      1.20000000 ANGSTROM
BO0002 =      1.80000000 ANGSTROM
AN0001 =    180.00000000 DEGREE
************************************************************************************************************************


 *************************************************************
 * Values of the primitive constraints                       *
 *************************************************************
 BO0001   : Bond Length=  1.200000 / Angstrom  2.267671 / bohr
 BO0002   : Bond Length=  1.800000 / Angstrom  3.401507 / bohr
  Valence angle close to end in range of definition
 AN0001   : Angle=      178.8974   / Degree    3.122348 / rad

 *******************************************
 * Values of the constraints   / au or rad *
 *******************************************
   Label        C         C0
 Cns001      2.267671  2.267671
 Cns002      3.401507  3.401507
 Cns003      3.122348  3.141593

  27  -289.87309805  -289.87721882    -0.00412077  0.02802001  0.05056191  0.00669709  0.22570530  0.64862383  0.01137937    280.32

 Constraints section
ConstraintsConstraintsConstraintsConstraintsConstraintsConstraintsConstraintsConstraintsConstraintsConstraints
ConstraintsConstraintsConstraintsConstraintsConstraintsConstraintsConstraintsConstraintsConstraintsConstraints
Constraints                                                                                        Constraints
Constraints                                 C O N S T R A I N T S                                  Constraints
Constraints                                                                                        Constraints

************************************************************************************************************************
BO0001 = BOND       H11   C6
BO0002 = BOND       H11   C17
AN0001 = ANGLE      C6    H11   C17
VALUES
BO0001 =      1.20000000 ANGSTROM
BO0002 =      1.80000000 ANGSTROM
AN0001 =    180.00000000 DEGREE
************************************************************************************************************************


 *************************************************************
 * Values of the primitive constraints                       *
 *************************************************************
 BO0001   : Bond Length=  1.200000 / Angstrom  2.267672 / bohr
 BO0002   : Bond Length=  1.800000 / Angstrom  3.401507 / bohr
  Valence angle close to end in range of definition
 AN0001   : Angle=      179.7268   / Degree    3.136825 / rad

 *******************************************
 * Values of the constraints   / au or rad *
 *******************************************
   Label        C         C0
 Cns001      2.267672  2.267671
 Cns002      3.401507  3.401507
 Cns003      3.136825  3.141593

  28  -289.87721882  -289.87911245    -0.00189364  0.01812994  0.03917193  0.00518845  0.13230193  0.39556499  0.00693974    291.82

 Constraints section
ConstraintsConstraintsConstraintsConstraintsConstraintsConstraintsConstraintsConstraintsConstraintsConstraints
ConstraintsConstraintsConstraintsConstraintsConstraintsConstraintsConstraintsConstraintsConstraintsConstraints
Constraints                                                                                        Constraints
Constraints                                 C O N S T R A I N T S                                  Constraints
Constraints                                                                                        Constraints

************************************************************************************************************************
BO0001 = BOND       H11   C6
BO0002 = BOND       H11   C17
AN0001 = ANGLE      C6    H11   C17
VALUES
BO0001 =      1.20000000 ANGSTROM
BO0002 =      1.80000000 ANGSTROM
AN0001 =    180.00000000 DEGREE
************************************************************************************************************************


 *************************************************************
 * Values of the primitive constraints                       *
 *************************************************************
 BO0001   : Bond Length=  1.200000 / Angstrom  2.267671 / bohr
 BO0002   : Bond Length=  1.800000 / Angstrom  3.401507 / bohr
  Valence angle close to end in range of definition
 AN0001   : Angle=      179.7928   / Degree    3.137976 / rad

 *******************************************
 * Values of the constraints   / au or rad *
 *******************************************
   Label        C         C0
 Cns001      2.267671  2.267671
 Cns002      3.401507  3.401507
 Cns003      3.137976  3.141593

  29  -289.87911245  -289.87969789    -0.00058544  0.01664749  0.02768190  0.00366656  0.41030405  0.91098390  0.01598217    304.39

 Constraints section
ConstraintsConstraintsConstraintsConstraintsConstraintsConstraintsConstraintsConstraintsConstraintsConstraints
ConstraintsConstraintsConstraintsConstraintsConstraintsConstraintsConstraintsConstraintsConstraintsConstraints
Constraints                                                                                        Constraints
Constraints                                 C O N S T R A I N T S                                  Constraints
Constraints                                                                                        Constraints

************************************************************************************************************************
BO0001 = BOND       H11   C6
BO0002 = BOND       H11   C17
AN0001 = ANGLE      C6    H11   C17
VALUES
BO0001 =      1.20000000 ANGSTROM
BO0002 =      1.80000000 ANGSTROM
AN0001 =    180.00000000 DEGREE
************************************************************************************************************************


 *************************************************************
 * Values of the primitive constraints                       *
 *************************************************************
 BO0001   : Bond Length=  1.200000 / Angstrom  2.267671 / bohr
 BO0002   : Bond Length=  1.800000 / Angstrom  3.401507 / bohr
 AN0001   : Angle=      175.9265   / Degree    3.070497 / rad

 *******************************************
 * Values of the constraints   / au or rad *
 *******************************************
   Label        C         C0
 Cns001      2.267671  2.267671
 Cns002      3.401507  3.401507
 Cns003      3.070497  3.141593

  30  -289.87969789  -289.88032677    -0.00062888  0.02672710  0.03623800  0.00479984  0.38118149  0.73755086  0.01293949    316.75

 Constraints section
ConstraintsConstraintsConstraintsConstraintsConstraintsConstraintsConstraintsConstraintsConstraintsConstraints
ConstraintsConstraintsConstraintsConstraintsConstraintsConstraintsConstraintsConstraintsConstraintsConstraints
Constraints                                                                                        Constraints
Constraints                                 C O N S T R A I N T S                                  Constraints
Constraints                                                                                        Constraints

************************************************************************************************************************
BO0001 = BOND       H11   C6
BO0002 = BOND       H11   C17
AN0001 = ANGLE      C6    H11   C17
VALUES
BO0001 =      1.20000000 ANGSTROM
BO0002 =      1.80000000 ANGSTROM
AN0001 =    180.00000000 DEGREE
************************************************************************************************************************


 *************************************************************
 * Values of the primitive constraints                       *
 *************************************************************
 BO0001   : Bond Length=  1.200001 / Angstrom  2.267673 / bohr
 BO0002   : Bond Length=  1.800000 / Angstrom  3.401507 / bohr
  Valence angle close to end in range of definition
 AN0001   : Angle=      178.4816   / Degree    3.115091 / rad

 *******************************************
 * Values of the constraints   / au or rad *
 *******************************************
   Label        C         C0
 Cns001      2.267673  2.267671
 Cns002      3.401507  3.401507
 Cns003      3.115091  3.141593

  31  -289.88032677  -289.88075387    -0.00042710  0.01168788  0.01537754  0.00203680  0.30999246  0.64718073  0.01135405    329.25

 Constraints section
ConstraintsConstraintsConstraintsConstraintsConstraintsConstraintsConstraintsConstraintsConstraintsConstraints
ConstraintsConstraintsConstraintsConstraintsConstraintsConstraintsConstraintsConstraintsConstraintsConstraints
Constraints                                                                                        Constraints
Constraints                                 C O N S T R A I N T S                                  Constraints
Constraints                                                                                        Constraints

************************************************************************************************************************
BO0001 = BOND       H11   C6
BO0002 = BOND       H11   C17
AN0001 = ANGLE      C6    H11   C17
VALUES
BO0001 =      1.20000000 ANGSTROM
BO0002 =      1.80000000 ANGSTROM
AN0001 =    180.00000000 DEGREE
************************************************************************************************************************


 *************************************************************
 * Values of the primitive constraints                       *
 *************************************************************
 BO0001   : Bond Length=  1.200000 / Angstrom  2.267672 / bohr
 BO0002   : Bond Length=  1.800000 / Angstrom  3.401507 / bohr
 AN0001   : Angle=      173.8398   / Degree    3.034077 / rad

 *******************************************
 * Values of the constraints   / au or rad *
 *******************************************
   Label        C         C0
 Cns001      2.267672  2.267671
 Cns002      3.401507  3.401507
 Cns003      3.034077  3.141593

  32  -289.88075387  -289.88076063    -0.00000676  0.00995502  0.01404448  0.00186024  0.37549792  0.70498534  0.01236816    341.78

 Constraints section
ConstraintsConstraintsConstraintsConstraintsConstraintsConstraintsConstraintsConstraintsConstraintsConstraints
ConstraintsConstraintsConstraintsConstraintsConstraintsConstraintsConstraintsConstraintsConstraintsConstraints
[...]
   11      0.202D-05      0.107D-05      -290.22949093    817.385619    0.41687   -0.19074    1.95032    9     30.5    368.5
   12      0.142D-05      0.418D-06      -290.22949097    817.385693    0.41687   -0.19068    1.95065    9     30.1    398.6
   13      0.528D-06      0.168D-06      -290.22949098    817.385699    0.41684   -0.19066    1.95066    9     27.8    426.4
   14      0.197D-06      0.840D-07      -290.22949098    817.385616    0.41682   -0.19066    1.95066    9     26.1    452.5

 Final alpha occupancy:  28
 Final beta  occupancy:  27

 !UKS STATE  1.1 Energy              -290.229490977802
 Nuclear energy                       281.72308991
 One-electron energy                 -947.66529787
 Two-electron energy                  408.69280775
 Density functional                   -32.98009077     PBEX=-41.62945164 PBEC= -1.75800204
 Virial quotient                       -1.00585870
 !UKS STATE  1.1 Dipole moment          0.41681500    -0.19065869     1.95066316
 Dipole moment /Debye                   1.05936867    -0.48457432     4.95776649

 Orbital energies for positive spin:

         1.1          2.1          3.1          4.1          5.1          6.1          7.1          8.1          9.1         10.1
    -14.390563   -10.280447   -10.268923   -10.254919   -10.236216   -10.224240   -10.223912    -0.930377    -0.865707    -0.784536

        11.1         12.1         13.1         14.1         15.1         16.1         17.1         18.1         19.1         20.1
     -0.722083    -0.674430    -0.601925    -0.520270    -0.488925    -0.476323    -0.463112    -0.446802    -0.416665    -0.411418

        21.1         22.1         23.1         24.1         25.1         26.1         27.1         28.1         29.1         30.1
     -0.398560    -0.391240    -0.370118    -0.362558    -0.356871    -0.355725    -0.355326    -0.314627     0.020244     0.021917

 Orbital energies for negative spin:

         1.1          2.1          3.1          4.1          5.1          6.1          7.1          8.1          9.1         10.1
    -14.389258   -10.265799   -10.263854   -10.254735   -10.236236   -10.224204   -10.223792    -0.916462    -0.860038    -0.780613

        11.1         12.1         13.1         14.1         15.1         16.1         17.1         18.1         19.1         20.1
     -0.721509    -0.668277    -0.591838    -0.507271    -0.483081    -0.465151    -0.450516    -0.422957    -0.415808    -0.410025

        21.1         22.1         23.1         24.1         25.1         26.1         27.1         28.1         29.1         30.1
     -0.396339    -0.375170    -0.361572    -0.358056    -0.350246    -0.349604    -0.345230    -0.190251     0.029007     0.031952


 HOMO     28.1    -0.314627 =      -8.5614eV
 LUMO    -28.1    -0.190251 =      -5.1770eV
 LUMO-HOMO         0.124376 =       3.3844eV

 EXPECTATION VALUE OF S**2:             0.76433716

 Occupation number threshold for pseudo-canonical orbitals: 1.9990 (occupied), 0.0010 (virtual)

 Number of pseudo-canonical occupied orbitals per symmetry:   24
 Number of active natural orbitals per symmetry:               7

 Natural orbitals saved to record    2204.2 (Orbital set 3)

 Orbital spaces for UNO-CAS (Min. occupation: 0.020  Max. occupation: 1.980):

 Closed:       27
 Active:        1


 **********************************************************************************************************************************
 DATASETS  * FILE   NREC   LENGTH (MB)   RECORD NAMES
              1      19       35.49       500      610      700      900      950      970     1001      129      960     1100   
                                          VAR    BASINP    GEOM    SYMINP    ZMAT    AOBASIS   BASIS     P2S    ABASIS      S 
                                         1400     1410     1200     1210     1080     1600     1650     1700     1800   
                                           T        V       H0       H01     AOSYM     SMH    MOLCAS    OPER     GRID   

              2      13       28.13       700     1000      520     2100     1800     2200      520(1)  2201      520(2)  2202   
                                         GEOM     BASIS   MCVARS     RHF     GRID      UKS    MCVARS     UKS    MCVARS     UKS  
                                         1001     2203     2204   
                                         BASIS     UKS      UKS  

 PROGRAMS   *        TOTAL    DF-UKS    DF-UKS       INT    DF-UKS      OPTG    DF-UKS      OPTG    DF-UKS     DF-HF       INT
 CPU TIMES  *      2890.71    452.56     15.51      0.23      8.01   1778.17     75.15    542.38      8.71      9.57      0.29
 REAL TIME  *      2905.20 SEC
 DISK USED  *        89.79 MB
 **********************************************************************************************************************************

 Density functional group PBE0=PBEX+PBEC
 Functional: PBEX(Automatically generated (new) PBEX)                          Gradient terms: 1
 Functional: PBEC(Automatically generated (new) PBEC)                          Gradient terms: 1
 Use libxcgrid:  F
 Use grid at  1800.2


 Exact exchange will be calculated, factor:  0.2500

 Functional: PBEX                      Factor:  0.7500
 Functional: PBEC                      Factor:  1.0000

  234265 words reserved for DFT integration

 PROGRAM * UKS-SCF (Unrestricted Kohn-Sham)     Authors: W. Meyer, H.-J. Werner, P.J. Knowles, 1993

 NUMBER OF ELECTRONS:      28+   27-    SPACE SYMMETRY=1    SPIN SYMMETRY: Doublet 
 CONVERGENCE THRESHOLDS:    1.00E-06 (Density)    1.00E-06 (Energy)
 INTEGRAL THRESHOLDS:       1.00E-11 (Initial)    1.00E-11 (Final)
 MAX. NUMBER OF ITERATIONS:       60
 INTERPOLATION TYPE:            DIIS
 INTERPOLATION STEPS:              2 (START)      1 (STEP)
 LEVEL SHIFTS:                 -0.20 (ALPHA)  -0.20 (BETA) 



 Use fine grid record 1800.2 for energy threshold  1.0D-06
 Molecular orbitals read from record     2204.2  Type=UKS/ALPHA (state 1.1)
 Molecular orbitals read from record     2204.2  Type=UKS/BETA (state 1.1)

 Molecular orbital dump at record        2205.2

 Initial alpha occupation  28
 Initial beta  occupation  27

 Direct Fock-matrix evaluation.        Author: H.-J. Werner (1996)

 Integral Threshold:                  0.1D-10

 ITERATION   DDIFF            GRAD            ENERGY        2-EL.EN.            DIPOLE MOMENTS         DIIS   CPU(IT)  CPU(TOT)
    1      0.000D+00      0.000D+00      -290.22924182    817.386114    0.41682   -0.19066    1.95066    0     37.8     37.8
    2      0.339D-04      0.751D-05      -290.22924318    817.382737    0.41679   -0.19066    1.95058    1     35.8     73.6
    3      0.113D-04      0.129D-05      -290.22924325    817.383695    0.41675   -0.19067    1.95049    2     33.4    107.0
    4      0.414D-05      0.237D-06      -290.22924326    817.383490    0.41673   -0.19067    1.95041    3     33.8    140.8
    5      0.102D-05      0.878D-07      -290.22924326    817.383783    0.41672   -0.19069    1.95041    4     32.0    172.8
    6      0.306D-06      0.461D-07      -290.22924326    817.383764    0.41671   -0.19068    1.95036    5     30.8    203.6
    7      0.483D-07      0.253D-07      -290.22924326    817.383744    0.41672   -0.19068    1.95037    6     27.9    231.5

 Final alpha occupancy:  28
 Final beta  occupancy:  27

 !UKS STATE  1.1 Energy              -290.229243256532
 Nuclear energy                       281.72308991
 One-electron energy                 -947.66438791
 Two-electron energy                  408.69187193
 Density functional                   -32.97981718     PBEX=-41.62902693 PBEC= -1.75804698
 Virial quotient                       -1.00587100
 !UKS STATE  1.1 Dipole moment          0.41671620    -0.19068405     1.95036604
 Dipole moment /Debye                   1.05911755    -0.48463877     4.95701131

 Orbital energies for positive spin:

         1.1          2.1          3.1          4.1          5.1          6.1          7.1          8.1          9.1         10.1
    -14.390602   -10.280497   -10.268941   -10.254947   -10.236262   -10.224286   -10.223961    -0.930381    -0.865707    -0.784538

        11.1         12.1         13.1         14.1         15.1         16.1         17.1         18.1         19.1         20.1
     -0.722089    -0.674430    -0.601923    -0.520271    -0.488931    -0.476324    -0.463119    -0.446803    -0.416671    -0.411414

        21.1         22.1         23.1         24.1         25.1         26.1         27.1         28.1         29.1         30.1
     -0.398560    -0.391234    -0.370116    -0.362564    -0.356870    -0.355739    -0.355341    -0.314630     0.020228     0.021892

 Orbital energies for negative spin:

         1.1          2.1          3.1          4.1          5.1          6.1          7.1          8.1          9.1         10.1
    -14.389296   -10.265849   -10.263871   -10.254764   -10.236283   -10.224250   -10.223841    -0.916464    -0.860040    -0.780616

        11.1         12.1         13.1         14.1         15.1         16.1         17.1         18.1         19.1         20.1
     -0.721515    -0.668277    -0.591836    -0.507274    -0.483087    -0.465157    -0.450515    -0.422956    -0.415815    -0.410021

        21.1         22.1         23.1         24.1         25.1         26.1         27.1         28.1         29.1         30.1
     -0.396339    -0.375164    -0.361576    -0.358058    -0.350258    -0.349620    -0.345227    -0.190253     0.028948     0.031928


 HOMO     28.1    -0.314630 =      -8.5615eV
 LUMO    -28.1    -0.190253 =      -5.1770eV
 LUMO-HOMO         0.124377 =       3.3845eV

 EXPECTATION VALUE OF S**2:             0.76433709

 Occupation number threshold for pseudo-canonical orbitals: 1.9990 (occupied), 0.0010 (virtual)

 Number of pseudo-canonical occupied orbitals per symmetry:   24
 Number of active natural orbitals per symmetry:               7

 Natural orbitals saved to record    2205.2 (Orbital set 3)

 Orbital spaces for UNO-CAS (Min. occupation: 0.020  Max. occupation: 1.980):

 Closed:       27
 Active:        1


 **********************************************************************************************************************************
 DATASETS  * FILE   NREC   LENGTH (MB)   RECORD NAMES
              1      19       35.49       500      610      700      900      950      970     1001      129      960     1100   
                                          VAR    BASINP    GEOM    SYMINP    ZMAT    AOBASIS   BASIS     P2S    ABASIS      S 
                                         1400     1410     1200     1210     1080     1600     1650     1700     1800   
                                           T        V       H0       H01     AOSYM     SMH    MOLCAS    OPER     GRID   

              2      14       33.99       700     1000      520     2100     1800     2200      520(1)  2201      520(2)  2202   
                                         GEOM     BASIS   MCVARS     RHF     GRID      UKS    MCVARS     UKS    MCVARS     UKS  
                                         1001     2203     2204     2205   
                                         BASIS     UKS      UKS      UKS  

 PROGRAMS   *        TOTAL   UKS-SCF    DF-UKS    DF-UKS       INT    DF-UKS      OPTG    DF-UKS      OPTG    DF-UKS     DF-HF
 CPU TIMES  *      3122.30    231.58    452.56     15.51      0.23      8.01   1778.17     75.15    542.38      8.71      9.57
 REAL TIME  *      3136.81 SEC
 DISK USED  *        91.39 MB
 **********************************************************************************************************************************

 Density functional group B3LYP=B88+DIRAC+LYP+VWN5
 Functional: B88(Automatically generated (new) B88)                            Gradient terms: 1
 Functional: DIRAC(Automatically generated (new) DIRAC)                        Gradient terms: 0
 Functional: LYP(Automatically generated (new) LYP)                            Gradient terms: 1
 Functional: VWN5(Automatically generated (new) VWN5)                          Gradient terms: 0
 Use libxcgrid:  F
 Use grid at  1800.2


 Exact exchange will be calculated, factor:  0.2000

 Functional: B88                       Factor:  0.7200
 Functional: DIRAC                     Factor:  0.0800
 Functional: LYP                       Factor:  0.8100
 Functional: VWN5                      Factor:  0.1900

  234265 words reserved for DFT integration

 PROGRAM * UKS-SCF (Unrestricted Kohn-Sham)     Authors: W. Meyer, H.-J. Werner, P.J. Knowles, 1993

 NUMBER OF ELECTRONS:      28+   27-    SPACE SYMMETRY=1    SPIN SYMMETRY: Doublet 
 CONVERGENCE THRESHOLDS:    1.00E-06 (Density)    1.00E-06 (Energy)
 INTEGRAL THRESHOLDS:       1.00E-11 (Initial)    1.00E-11 (Final)
 MAX. NUMBER OF ITERATIONS:       60
 INTERPOLATION TYPE:            DIIS
 INTERPOLATION STEPS:              2 (START)      1 (STEP)
 LEVEL SHIFTS:                 -0.20 (ALPHA)  -0.20 (BETA) 



 Use fine grid record 1800.2 for energy threshold  1.0D-06
 Molecular orbitals read from record     2205.2  Type=UKS/ALPHA (state 1.1)
 Molecular orbitals read from record     2205.2  Type=UKS/BETA (state 1.1)

 Molecular orbital dump at record        2206.2

 Initial alpha occupation  28
 Initial beta  occupation  27

 Direct Fock-matrix evaluation.        Author: H.-J. Werner (1996)

 Integral Threshold:                  0.1D-10

 ITERATION   DDIFF            GRAD            ENERGY        2-EL.EN.            DIPOLE MOMENTS         DIIS   CPU(IT)  CPU(TOT)
    1      0.000D+00      0.000D+00      -290.40193786    821.560455    0.41672   -0.19068    1.95037    0     37.8     37.8
    2      0.106D-02      0.392D-03      -290.40605120    821.930654    0.42144   -0.19314    1.97075    1     36.9     74.7
    3      0.185D-03      0.616D-04      -290.40625155    821.610199    0.41855   -0.19065    1.96105    2     35.7    110.4
    4      0.922D-04      0.288D-04      -290.40628281    821.636001    0.42280   -0.19401    1.97982    3     36.0    146.4
    5      0.446D-04      0.172D-04      -290.40629442    821.651314    0.42088   -0.19058    1.97315    4     34.7    181.1
    6      0.237D-04      0.976D-05      -290.40629955    821.627366    0.42187   -0.19083    1.97849    5     34.8    215.9
    7      0.132D-04      0.348D-05      -290.40630201    821.634310    0.42201   -0.19064    1.98044    6     34.7    250.6
    8      0.707D-05      0.211D-05      -290.40630341    821.630445    0.42214   -0.19023    1.98238    7     34.1    284.7
    9      0.450D-05      0.121D-05      -290.40630393    821.631400    0.42201   -0.18988    1.98278    8     34.1    318.7
   10      0.183D-05      0.575D-06      -290.40630400    821.631650    0.42196   -0.18994    1.98286    9     30.9    349.6
   11      0.945D-06      0.252D-06      -290.40630402    821.631684    0.42189   -0.18989    1.98260    9     28.8    378.4
   12      0.518D-06      0.124D-06      -290.40630402    821.631666    0.42185   -0.18989    1.98239    9     29.2    407.6

 Final alpha occupancy:  28
 Final beta  occupancy:  27

 !UKS STATE  1.1 Energy              -290.406304023170
 Nuclear energy                       281.72308991
 One-electron energy                 -947.67848786
 Two-electron energy                  410.81583296
 Density functional                   -35.26673903     B88=-41.89951292 DIRAC=-37.66558256 LYP= -1.76748180 VWN5= -3.44306769
 Virial quotient                       -1.00539803
 !UKS STATE  1.1 Dipole moment          0.42185336    -0.18989375     1.98238592
 Dipole moment /Debye                   1.07217407    -0.48263017     5.03839241

 Orbital energies for positive spin:

         1.1          2.1          3.1          4.1          5.1          6.1          7.1          8.1          9.1         10.1
    -14.321198   -10.223498   -10.214540   -10.200850   -10.184700   -10.172519   -10.172248    -0.902653    -0.840452    -0.761548

        11.1         12.1         13.1         14.1         15.1         16.1         17.1         18.1         19.1         20.1
     -0.700938    -0.654779    -0.584518    -0.504165    -0.473707    -0.461296    -0.448006    -0.432855    -0.404927    -0.399908

        21.1         22.1         23.1         24.1         25.1         26.1         27.1         28.1         29.1         30.1
     -0.387237    -0.378844    -0.358887    -0.352016    -0.346706    -0.340979    -0.340663    -0.303426     0.014157     0.015044

 Orbital energies for negative spin:

         1.1          2.1          3.1          4.1          5.1          6.1          7.1          8.1          9.1         10.1
    -14.319518   -10.210271   -10.209900   -10.200627   -10.184690   -10.172485   -10.172137    -0.889195    -0.835154    -0.757924

        11.1         12.1         13.1         14.1         15.1         16.1         17.1         18.1         19.1         20.1
     -0.700384    -0.648997    -0.575101    -0.492933    -0.468888    -0.451665    -0.437620    -0.409554    -0.403986    -0.398577

        21.1         22.1         23.1         24.1         25.1         26.1         27.1         28.1         29.1         30.1
     -0.385403    -0.364499    -0.351119    -0.348005    -0.337734    -0.334669    -0.333652    -0.197805     0.019715     0.023784


 HOMO     28.1    -0.303426 =      -8.2566eV
 LUMO    -28.1    -0.197805 =      -5.3825eV
 LUMO-HOMO         0.105621 =       2.8741eV

 EXPECTATION VALUE OF S**2:             0.76061307

 Occupation number threshold for pseudo-canonical orbitals: 1.9990 (occupied), 0.0010 (virtual)

 Number of pseudo-canonical occupied orbitals per symmetry:   24
 Number of active natural orbitals per symmetry:               7

 Natural orbitals saved to record    2206.2 (Orbital set 3)

 Orbital spaces for UNO-CAS (Min. occupation: 0.020  Max. occupation: 1.980):

 Closed:       27
 Active:        1


 **********************************************************************************************************************************
 DATASETS  * FILE   NREC   LENGTH (MB)   RECORD NAMES
              1      19       35.49       500      610      700      900      950      970     1001      129      960     1100   
                                          VAR    BASINP    GEOM    SYMINP    ZMAT    AOBASIS   BASIS     P2S    ABASIS      S 
                                         1400     1410     1200     1210     1080     1600     1650     1700     1800   
                                           T        V       H0       H01     AOSYM     SMH    MOLCAS    OPER     GRID   

              2      15       39.84       700     1000      520     2100     1800     2200      520(1)  2201      520(2)  2202   
                                         GEOM     BASIS   MCVARS     RHF     GRID      UKS    MCVARS     UKS    MCVARS     UKS  
                                         1001     2203     2204     2205     2206   
                                         BASIS     UKS      UKS      UKS      UKS  

 PROGRAMS   *        TOTAL   UKS-SCF   UKS-SCF    DF-UKS    DF-UKS       INT    DF-UKS      OPTG    DF-UKS      OPTG    DF-UKS
 CPU TIMES  *      3529.94    407.64    231.58    452.56     15.51      0.23      8.01   1778.17     75.15    542.38      8.71
 REAL TIME  *      3544.50 SEC
 DISK USED  *        99.93 MB
 **********************************************************************************************************************************

 UB3LYP/TZVP//CF-UKS/SVP energy=   -290.406304023170

         UKS-SCF         UKS-SCF          DF-UKS          DF-UKS          DF-UKS    OPTG(DF-UKS)          DF-UKS    OPTG(DF-UKS)
   -290.40630402   -290.22924326   -290.22949098   -290.20106188   -289.87946672   -289.91501505   -289.91468819   -289.88167928
 **********************************************************************************************************************************
 Molpro calculation terminated with 2 warning(s)
