
 Primary working directories    : /mnt/storage/home/lb17101/scratch/1379286/molpro.ctbvvkQ3Mo
 Secondary working directories  : /mnt/storage/home/lb17101/scratch/1379286/molpro.ctbvvkQ3Mo
 Wavefunction directory         : /mnt/storage/home/lb17101/optimizations/11/
 Main file repository           : /mnt/storage/home/lb17101/optimizations/11/

 id        : simonbennie

 Nodes                   nprocs
 compute073.bc4.acrc.priv    4

 Using customized tuning parameters: mindgm=1; mindgv=20; mindgc=4; mindgr=1; noblas=0; minvec=7
 default implementation of scratch files=sf  


 Variables initialized (924), CPU time= 0.01 sec
 memory,536,m
 
 geomtyp=xyz
 
 nosym
 noorient
 gdirect
 angstrom
 
 geometry=input.xyz
 Including file /mnt/storage/home/lb17101/optimizations/11/input.xyz
 
 set,charge=0
 
 basis=svp
 df-hf
 {cf-uks,pbe;}
 {optg,method=slrf,maxiter=50;
 constraint,2.200,angstrom,bond,atoms=[H11,C6]
 constraint,1.000,angstrom,bond,atoms=[H11,C17]
 constraint,180,deg,angle,atoms=[C6,H11,C17]
 {slopt;}}
 {cf-uks,pbe0;}
 {optg,method=slrf,maxiter=20;
 constraint,2.200,angstrom,bond,atoms=[H11,C6]
 constraint,1.000,angstrom,bond,atoms=[H11,C17]
 constraint,180,deg,angle,atoms=[C6,H11,C17]
 {slopt;}}
 {cf-uks,pbe;}
 basis=tzvp
 {cf-uks,pbe;}
 {cf-uks,pbe0;}
 {uks,pbe0;}
 {uks,b3lyp;}
 Commands  initialized (760), CPU time= 0.01 sec, 616 directives.
 Default parameters read. Elapsed time= 0.05 sec

 Checking input...
 Passed
1


                                         ***  PROGRAM SYSTEM MOLPRO  ***
                                       Copyright, TTI GmbH Stuttgart, 2015
                                    Version 2018.1 linked Oct 16 2018 14:32:03


 **********************************************************************************************************************************
 LABEL *                                                                                 
  64 bit mpp version                                                                     DATE: 09-Nov-18          TIME: 21:54:35  
 **********************************************************************************************************************************

 SHA1:             d673ad554fd0a1ae99daa449513f8b88cca0f763
 **********************************************************************************************************************************
 SETTING GEOMTYP        =    XYZ

 Variable memory set to  536000000 words,  buffer space 

 ZSYMEL=NOSYM
 ZUNIT=ANG

 SETTING CHARGE         =     0.00000000D+00                                  
 SETTING BASIS          =    SVP


 Recomputing integrals since basis changed


 Using spherical harmonics

 Library entry C      S def2-SVP             selected for orbital group  1
 Library entry C      P def2-SVP             selected for orbital group  1
 Library entry C      D def2-SVP             selected for orbital group  1
 Library entry H      S def2-SVP             selected for orbital group  2
 Library entry H      P def2-SVP             selected for orbital group  2
 Library entry N      S def2-SVP             selected for orbital group  8
 Library entry N      P def2-SVP             selected for orbital group  8
 Library entry N      D def2-SVP             selected for orbital group  8


 PROGRAM * SEWARD (Integral evaluation for generally contracted gaussian basis sets)     Author: Roland Lindh, 1990

 Geometry written to block  1 of record 700


 Point group  C1  



 ATOMIC COORDINATES

 NR  ATOM    CHARGE       X              Y              Z

   1  C0      6.00  -15.623034457    4.456181068   -0.744963817
   2  C1      6.00  -12.754161497    4.471148812   -0.270646497
   3  H2      1.00  -16.050724045    4.674077832   -2.791508804
   4  H3      1.00  -16.572723553    6.025924871    0.266890858
   5  H4      1.00  -16.494424527    2.659733771   -0.105170181
   6  C5      6.00  -11.570266300    7.002201743   -1.086802570
   7  C6      6.00  -11.492126434    2.196457185   -1.416610084
   8  H7      1.00  -12.474168993    4.333386856    1.830631913
   9  H8      1.00  -11.763135953    7.285372778   -3.155238719
  10  H9      1.00   -9.533873707    7.111716548   -0.612814725
  11  H10     1.00  -12.520738188    8.609141184   -0.135413196
  12  H11     1.00  -13.007317023    2.744903906   -6.851534638
  13  H12     1.00  -12.665161079    0.480079678   -1.598889749
  14  C13     6.00   -8.691617909    1.890885500   -1.553555080
  15  H14     1.00   -7.738367918    3.530069106   -2.457983525
  16  H15     1.00   -8.137223237    0.166611698   -2.602303197
  17  H16     1.00   -7.827415309    1.731359762    0.371967837
  18  C17     6.00  -13.531628172    3.097804943   -8.831810575
  19  N18     7.00  -14.089116397    3.480071945  -10.933086168

 Bond lengths in Bohr (Angstrom)

 1-2  2.907857117  1-3  2.102080819  1-4  2.095198050  1-5  2.096635267  2-6  2.911004554
     ( 1.538771719)     ( 1.112373265)     ( 1.108731061)     ( 1.109491603)     ( 1.540437271)

  2- 7  2.842566981   2- 8  2.124322271   6- 9  2.096619336   6-10  2.093693570   6-11  2.095421895
       ( 1.504221667)       ( 1.124142935)       ( 1.109483172)       ( 1.107934924)       ( 1.108849514)

  7-13  2.086908695   7-14  2.820456698  12-18  2.078685669  14-15  2.100856790  14-16  2.092927664
       ( 1.104344523)       ( 1.492521409)       ( 1.099993085)       ( 1.111725537)       ( 1.107529624)

 14-17  2.116585245  18-19  2.207324240
       ( 1.120048677)       ( 1.168065685)

 Bond angles

  1-2-6  111.09939358   1-2-7  111.60137794   1-2-8  106.92075244   2-1-3  111.03911382

  2- 1- 4  111.38057269   2- 1- 5  111.38769550   2- 6- 9  110.89278884   2- 6-10  112.18344479

  2- 6-11  110.79429451   2- 7-13  116.34663244   2- 7-14  123.16888649   3- 1- 4  107.47545775

  3-1-5  107.53847579   4-1-5  107.82953177   6-2-7  113.71478466   6-2-8  106.26673734

  7- 2- 8  106.75971964   7-14-15  112.76201543   7-14-16  112.12347607   7-14-17  111.67904931

  9- 6-10  107.80351523   9- 6-11  107.61546168  10- 6-11  107.35429488  12-18-19  179.79963244

 13- 7-14  117.69536096  15-14-16  107.87231350  15-14-17  105.37802152  16-14-17  106.59532687

 NUCLEAR CHARGE:                   55
 NUMBER OF PRIMITIVE AOS:         259
 NUMBER OF SYMMETRY AOS:          252
 NUMBER OF CONTRACTIONS:          158   (  158A   )
 NUMBER OF CORE ORBITALS:           7   (    7A   )
 NUMBER OF VALENCE ORBITALS:       40   (   40A   )


 NUCLEAR REPULSION ENERGY  266.36079263


 Eigenvalues of metric

         1 0.186E-02 0.367E-02 0.455E-02 0.556E-02 0.740E-02 0.190E-01 0.201E-01 0.227E-01


 OPERATOR DM      FOR CENTER  0  COORDINATES:    0.000000    0.000000    0.000000


 **********************************************************************************************************************************
 DATASETS  * FILE   NREC   LENGTH (MB)   RECORD NAMES
              1      18       31.21       500      610      700      900      950      970     1000      129      960     1100   
                                          VAR    BASINP    GEOM    SYMINP    ZMAT    AOBASIS   BASIS     P2S    ABASIS      S 
                                         1400     1410     1200     1210     1080     1600     1650     1700   
                                           T        V       H0       H01     AOSYM     SMH    MOLCAS    OPER   

 PROGRAMS   *        TOTAL       INT
 CPU TIMES  *         0.66      0.53
 REAL TIME  *         1.04 SEC
 DISK USED  *        31.83 MB (local),      127.32 MB (total)
 GA USED    *         0.00 MB       (max)       0.00 MB       (current)
 **********************************************************************************************************************************


 PROGRAM * RHF-SCF (OPEN SHELL)       Authors: W. Meyer, H.-J. Werner


 NUMBER OF ELECTRONS:      28+   27-    SPACE SYMMETRY=1    SPIN SYMMETRY: Doublet 
 CONVERGENCE THRESHOLDS:    1.00E-06 (Density)    1.00E-07 (Energy)
 INTEGRAL THRESHOLDS:       1.00E-11 (Initial)    1.00E-11 (Final)
 MAX. NUMBER OF ITERATIONS:       60
 INTERPOLATION TYPE:            DIIS
 INTERPOLATION STEPS:              2 (START)      1 (STEP)
 LEVEL SHIFTS:                 -0.60 (CLOSED) -0.30 (OPEN) 




 Basis set DEF2-SVP/JKFIT generated.     Number of basis functions:   560 

 Orbital guess generated from atomic densities. Full valence occupancy:   28
 Using density fitting in orbital guess

 Coulomb and exchange fitting
 Thresholds for fitting:       THRAO_COUL= 1.0D-14    THRAO_EXCH= 1.0D-12    THRMO= 1.0D-11    THRPROD= 1.0D-11    THRASM= 1.0D-11
                               THR2HLF=    1.0D-11

 Molecular orbital dump at record        2100.2

 Initial alpha occupancy:  28
 Initial beta  occupancy:  27
 Wave function symmetry:    1

 ITERATION   DDIFF            GRAD            ENERGY        2-EL.EN.            DIPOLE MOMENTS         DIIS   CPU(IT)  CPU(TOT)  ORB.
    1      0.000D+00      0.000D+00      -288.25515683    724.827716    0.67741   -0.23183    2.05219    0      0.2      0.5     start
    2      0.000D+00      0.406D-02      -288.33519995    721.922907    0.46565   -0.17005    1.54480    1      0.2      0.7     diag,B
    3      0.309D-02      0.158D-02      -288.35112100    722.030083    0.44885   -0.19605    1.57807    2      0.2      0.9     diag,B
    4      0.154D-02      0.759D-03      -288.35755801    721.990573    0.41407   -0.19475    1.51512    3      0.2      1.1     diag,B
    5      0.137D-02      0.213D-03      -288.35821314    721.956796    0.40924   -0.19627    1.50450    4      0.2      1.3     diag,B
    6      0.557D-03      0.747D-04      -288.35830788    721.929508    0.40777   -0.19595    1.49795    5      0.2      1.5     diag,B
    7      0.256D-03      0.223D-04      -288.35831674    721.921956    0.40736   -0.19545    1.49531    6      0.2      1.7     fixocc
    8      0.755D-04      0.734D-05      -288.35831791    721.921394    0.40711   -0.19509    1.49409    7      0.2      1.9     diag,B
    9      0.289D-04      0.264D-05      -288.35831809    721.921643    0.40702   -0.19494    1.49373    8      0.2      2.1     diag,B
   10      0.135D-04      0.845D-06      -288.35831811    721.921787    0.40701   -0.19490    1.49369    9      0.2      2.3     orth
   11      0.451D-05      0.308D-06      -288.35831812    721.921789    0.40701   -0.19489    1.49370    9      0.2      2.5     diag,B
   12      0.165D-05      0.106D-06      -288.35831812    721.921778    0.40701   -0.19489    1.49371    9      0.2      2.7     diag,B
   13      0.556D-06      0.365D-07      -288.35831812    721.921773    0.40701   -0.19489    1.49371    0      0.2      2.9     orth

 Final alpha occupancy:  28
 Final beta  occupancy:  27

 !RHF STATE  1.1 Energy              -288.358318116315
 Nuclear energy                       266.36079263
 One-electron energy                 -915.67999731
 Two-electron energy                  360.96088657
 Virial quotient                       -1.00689617
 !RHF STATE  1.1 Dipole moment          0.40700983    -0.19488966     1.49370591
 Dipole moment /Debye                   1.03444804    -0.49532765     3.79637307

 Orbital energies:

         1.1          2.1          3.1          4.1          5.1          6.1          7.1          8.1          9.1         10.1
    -15.598835   -11.299230   -11.247100   -11.242892   -11.238344   -11.236433   -11.235547    -1.211249    -1.086418    -0.990694

        11.1         12.1         13.1         14.1         15.1         16.1         17.1         18.1         19.1         20.1
     -0.926015    -0.848804    -0.786408    -0.740048    -0.636462    -0.618646    -0.596091    -0.571540    -0.562510    -0.548054

        21.1         22.1         23.1         24.1         25.1         26.1         27.1         28.1         29.1         30.1
     -0.539342    -0.524043    -0.487885    -0.486673    -0.485850    -0.480671    -0.474620    -0.357411     0.150175     0.166889


 HOMO     28.1    -0.357411 =      -9.7256eV
 LUMO     29.1     0.150175 =       4.0865eV
 LUMO-HOMO         0.507586 =      13.8121eV


 **********************************************************************************************************************************
 DATASETS  * FILE   NREC   LENGTH (MB)   RECORD NAMES
              1      18       31.21       500      610      700      900      950      970     1000      129      960     1100   
                                          VAR    BASINP    GEOM    SYMINP    ZMAT    AOBASIS   BASIS     P2S    ABASIS      S 
                                         1400     1410     1200     1210     1080     1600     1650     1700   
                                           T        V       H0       H01     AOSYM     SMH    MOLCAS    OPER   

              2       4        3.88       700     1000      520     2100   
                                         GEOM     BASIS   MCVARS     RHF  

 PROGRAMS   *        TOTAL     DF-HF       INT
 CPU TIMES  *         3.56      2.90      0.53
 REAL TIME  *         4.15 SEC
 DISK USED  *        38.78 MB (local),      155.11 MB (total)
 SF USED    *        31.68 MB
 GA USED    *         3.27 MB       (max)       0.00 MB       (current)
 **********************************************************************************************************************************

 Density functional group PBE=PBEX+PBEC
 Functional: PBEX(Automatically generated (new) PBEX)                          Gradient terms: 1
 Functional: PBEC(Automatically generated (new) PBEC)                          Gradient terms: 1
 Use libxcgrid:  F
 Use grid at  1800.2

 Functional: PBEX                      Factor:  1.0000
 Functional: PBEC                      Factor:  1.0000

 Generated new metagrid on record  1800.2 with target accuracy 1.0D-06 and 63368 points in CPU time    0.4
 Computed new grid on record 1800.1 in CPU time    0.5
  129907 words reserved for DFT integration

 PROGRAM * UKS-SCF (Unrestricted Kohn-Sham)     Authors: W. Meyer, H.-J. Werner, P.J. Knowles, 1993

 NUMBER OF ELECTRONS:      28+   27-    SPACE SYMMETRY=1    SPIN SYMMETRY: Doublet 
 CONVERGENCE THRESHOLDS:    1.00E-06 (Density)    1.00E-06 (Energy)
 INTEGRAL THRESHOLDS:       1.00E-11 (Initial)    1.00E-11 (Final)
 MAX. NUMBER OF ITERATIONS:       60
 INTERPOLATION TYPE:            DIIS
 INTERPOLATION STEPS:              2 (START)      1 (STEP)
 LEVEL SHIFTS:                 -0.20 (ALPHA)  -0.20 (BETA) 



 Use fine grid record 1800.2 for energy threshold  1.0D-06

 Basis set DEF2-SVP/JFIT generated.      Number of basis functions:   475 
 Coulomb fitting
 Screening thresholds:    THRAO_COUL= 1.0D-14    THRAO= 1.0D-12    THROV= 1.0D-12

 Reserved 1 MW to cache 100.0% of significant integrals (4 MW global). CPU: 0.1 sec

 Molecular orbitals read from record     2100.2  Type=RHF/CANONICAL (state 1.1)

 Molecular orbital dump at record        2200.2

 Initial alpha occupation  28
 Initial beta  occupation  27

 ITERATION    DDIFF          GRAD             ENERGY        2-EL.EN.            DIPOLE MOMENTS         DIIS  CPU(IT) CPU(TOT)
    1      0.000D+00      0.000D+00      -289.86338031    805.399339    0.40701   -0.19489    1.49371    0      0.2      0.3
    2      0.410D-02      0.216D-02      -289.90464828    808.460075    0.39267   -0.15660    1.39652    1      0.2      0.4
    3      0.138D-02      0.440D-03      -289.90832009    807.092031    0.39515   -0.15013    1.37627    2      0.2      0.6
    4      0.736D-03      0.193D-03      -289.90928625    807.607657    0.39620   -0.14593    1.35977    3      0.2      0.8
    5      0.317D-03      0.799D-04      -289.90941664    807.540764    0.41065   -0.15123    1.40292    4      0.2      0.9
    6      0.139D-03      0.852D-04      -289.90951198    807.475276    0.40415   -0.14524    1.37617    5      0.2      1.1
    7      0.877D-04      0.210D-04      -289.90952764    807.487587    0.40677   -0.14716    1.38437    6      0.2      1.3
    8      0.322D-04      0.767D-05      -289.90952980    807.489113    0.40708   -0.14633    1.38485    7      0.2      1.4
    9      0.137D-04      0.280D-05      -289.90953007    807.489415    0.40728   -0.14652    1.38516    8      0.2      1.6
   10      0.587D-05      0.126D-05      -289.90953012    807.488575    0.40728   -0.14649    1.38546    8      0.2      1.8
   11      0.209D-05      0.288D-06      -289.90953013    807.488592    0.40730   -0.14650    1.38548    8      0.2      1.9
   12      0.548D-06      0.101D-06      -289.90953013    807.488657    0.40729   -0.14651    1.38548    8      0.2      2.1
   13      0.246D-06      0.576D-07      -289.90953013    807.488604    0.40729   -0.14650    1.38548    7      0.2      2.3

 Final alpha occupancy:  28
 Final beta  occupancy:  27

 !UKS STATE  1.1 Energy              -289.909530127508
 Nuclear energy                       266.36079263
 One-electron energy                 -916.74881357
 Two-electron energy                  403.74430205
 Density functional                   -43.26581123     PBEX=-41.50719124 PBEC= -1.75861999
 Virial quotient                       -1.01213296
 !UKS STATE  1.1 Dipole moment          0.40729348    -0.14650224     1.38548143
 Dipole moment /Debye                   1.03516897    -0.37234717     3.52131190

 Orbital energies for positive spin:

         1.1          2.1          3.1          4.1          5.1          6.1          7.1          8.1          9.1         10.1
    -14.008857    -9.945506    -9.916599    -9.916383    -9.906908    -9.899206    -9.898927    -0.818171    -0.739444    -0.668274

        11.1         12.1         13.1         14.1         15.1         16.1         17.1         18.1         19.1         20.1
     -0.615751    -0.564916    -0.528204    -0.490481    -0.422246    -0.407436    -0.390805    -0.370654    -0.349641    -0.341960

        21.1         22.1         23.1         24.1         25.1         26.1         27.1         28.1         29.1         30.1
     -0.329817    -0.316695    -0.315015    -0.314832    -0.306718    -0.300985    -0.295007    -0.166837    -0.022049    -0.019550

 Orbital energies for negative spin:

         1.1          2.1          3.1          4.1          5.1          6.1          7.1          8.1          9.1         10.1
    -14.008855    -9.945347    -9.917068    -9.907631    -9.903915    -9.898794    -9.898759    -0.818097    -0.731702    -0.661270

        11.1         12.1         13.1         14.1         15.1         16.1         17.1         18.1         19.1         20.1
     -0.614885    -0.556877    -0.527454    -0.480492    -0.416740    -0.404752    -0.386556    -0.362132    -0.348957    -0.340894

        21.1         22.1         23.1         24.1         25.1         26.1         27.1         28.1         29.1         30.1
     -0.326922    -0.316607    -0.314891    -0.314738    -0.303315    -0.298871    -0.290429    -0.095617    -0.021851    -0.019360


 HOMO     28.1    -0.166837 =      -4.5399eV
 LUMO    -28.1    -0.095617 =      -2.6019eV
 LUMO-HOMO         0.071221 =       1.9380eV

 EXPECTATION VALUE OF S**2:             0.75333059

 Occupation number threshold for pseudo-canonical orbitals: 1.9990 (occupied), 0.0010 (virtual)

 Number of pseudo-canonical occupied orbitals per symmetry:   27
 Number of active natural orbitals per symmetry:               1

 Natural orbitals saved to record    2200.2 (Orbital set 3)

 Orbital spaces for UNO-CAS (Min. occupation: 0.020  Max. occupation: 1.980):

 Closed:       27
 Active:        1


 **********************************************************************************************************************************
 DATASETS  * FILE   NREC   LENGTH (MB)   RECORD NAMES
              1      19       31.21       500      610      700      900      950      970     1000      129      960     1100   
                                          VAR    BASINP    GEOM    SYMINP    ZMAT    AOBASIS   BASIS     P2S    ABASIS      S 
                                         1400     1410     1200     1210     1080     1600     1650     1700     1800   
                                           T        V       H0       H01     AOSYM     SMH    MOLCAS    OPER     GRID   

              2       6        7.61       700     1000      520     2100     1800     2200   
                                         GEOM     BASIS   MCVARS     RHF     GRID      UKS  

 PROGRAMS   *        TOTAL    DF-UKS     DF-HF       INT
 CPU TIMES  *         6.40      2.84      2.90      0.53
 REAL TIME  *         7.11 SEC
 DISK USED  *        38.89 MB (local),      155.54 MB (total)
 SF USED    *        31.68 MB
 GA USED    *         3.27 MB       (max)       2.09 MB       (current)
 **********************************************************************************************************************************


 PROGRAM * OPT (Geometry optimization)     Authors: F. Eckert and H.-J. Werner


 BFGS update of hessian


********** USER DEFINED INT/FIX/CONSTRAINTS ****************

List of primitive internal coordinates

     N      Name     Type   Natoms   Atom list

     1    Bo0001     Bond        2      H11  C6  
     2    Bo0002     Bond        2      H11  C17 
     3    An0001     Angle       3      C6   H11  C17 

List of user defined internal/fixed coordinates and constraints

- - - - - - - - - - - - - - - - - - - - - - - - - - - - - - - - - 
    N      Name   Type      Pname     Coeff       Value   Unit
- - - - - - - - - - - - - - - - - - - - - - - - - - - - - - - - - 
    1    Cns001    Con     Bo0001     1.000     2.20000 Angstrom
- - - - - - - - - - - - - - - - - - - - - - - - - - - - - - - - - 
    2    Cns002    Con     Bo0002     1.000     1.00000 Angstrom
- - - - - - - - - - - - - - - - - - - - - - - - - - - - - - - - - 
    3    Cns003    Con     An0001     1.000   180.00000   Degree
- - - - - - - - - - - - - - - - - - - - - - - - - - - - - - - - - 


******************************************************************



 *** Long output written to logfile /mnt/storage/home/lb17101/optimizations/11/11_2.20_1.00.log ***


 Geometry optimization using default procedure for command CF-UKS-SCF

 Geometry written to block  1 of record 700

 SLAPAF optimizer by R. Lindh and Ignacio F. Galvan entered

 Constraints section
ConstraintsConstraintsConstraintsConstraintsConstraintsConstraintsConstraintsConstraintsConstraintsConstraints
ConstraintsConstraintsConstraintsConstraintsConstraintsConstraintsConstraintsConstraintsConstraintsConstraints
Constraints                                                                                        Constraints
Constraints                                 C O N S T R A I N T S                                  Constraints
Constraints                                                                                        Constraints

************************************************************************************************************************
BO0001 = BOND       H11   C6
BO0002 = BOND       H11   C17
AN0001 = ANGLE      C6    H11   C17
VALUES
BO0001 =      2.20000000 ANGSTROM
BO0002 =      1.00000000 ANGSTROM
AN0001 =    180.00000000 DEGREE
************************************************************************************************************************


 *************************************************************
 * Values of the primitive constraints                       *
 *************************************************************
 BO0001   : Bond Length=  2.999786 / Angstrom  5.668774 / bohr
 BO0002   : Bond Length=  1.099993 / Angstrom  2.078686 / bohr
 AN0001   : Angle=      175.7129   / Degree    3.066769 / rad

 *******************************************
 * Values of the constraints   / au or rad *
 *******************************************
   Label        C         C0
 Cns001      5.668774  4.157397
 Cns002      2.078686  1.889726
 Cns003      3.066769  3.141593


 ITER.   ENERGY(OLD)    ENERGY(NEW)      DE          GRADMAX     GRADNORM    GRADRMS     STEPMAX     STEPLEN     STEPRMS   CPU-time
   1  -289.90953013  -289.90841450     0.00111563  0.00531371  0.00802366  0.00106276  0.43973564  1.08888739  0.01910329      3.75

 Constraints section
ConstraintsConstraintsConstraintsConstraintsConstraintsConstraintsConstraintsConstraintsConstraintsConstraints
ConstraintsConstraintsConstraintsConstraintsConstraintsConstraintsConstraintsConstraintsConstraintsConstraints
Constraints                                                                                        Constraints
Constraints                                 C O N S T R A I N T S                                  Constraints
Constraints                                                                                        Constraints

************************************************************************************************************************
BO0001 = BOND       H11   C6
BO0002 = BOND       H11   C17
AN0001 = ANGLE      C6    H11   C17
VALUES
BO0001 =      2.20000000 ANGSTROM
BO0002 =      1.00000000 ANGSTROM
AN0001 =    180.00000000 DEGREE
************************************************************************************************************************


 *************************************************************
 * Values of the primitive constraints                       *
 *************************************************************
 BO0001   : Bond Length=  2.928308 / Angstrom  5.533700 / bohr
 BO0002   : Bond Length=  1.091064 / Angstrom  2.061811 / bohr
 AN0001   : Angle=      176.0810   / Degree    3.073193 / rad

 *******************************************
 * Values of the constraints   / au or rad *
 *******************************************
   Label        C         C0
 Cns001      5.533700  4.157397
 Cns002      2.061811  1.889726
 Cns003      3.073193  3.141593

   2  -289.90841450  -289.90779121     0.00062329  0.01268863  0.02280769  0.00302095  0.51843330  1.34898350  0.02366638      7.49

 Constraints section
ConstraintsConstraintsConstraintsConstraintsConstraintsConstraintsConstraintsConstraintsConstraintsConstraints
ConstraintsConstraintsConstraintsConstraintsConstraintsConstraintsConstraintsConstraintsConstraintsConstraints
Constraints                                                                                        Constraints
Constraints                                 C O N S T R A I N T S                                  Constraints
Constraints                                                                                        Constraints

************************************************************************************************************************
BO0001 = BOND       H11   C6
BO0002 = BOND       H11   C17
AN0001 = ANGLE      C6    H11   C17
VALUES
BO0001 =      2.20000000 ANGSTROM
BO0002 =      1.00000000 ANGSTROM
AN0001 =    180.00000000 DEGREE
************************************************************************************************************************


 *************************************************************
 * Values of the primitive constraints                       *
 *************************************************************
 BO0001   : Bond Length=  2.580407 / Angstrom  4.876263 / bohr
 BO0002   : Bond Length=  1.047603 / Angstrom  1.979683 / bohr
  Valence angle close to end in range of definition
 AN0001   : Angle=      177.5859   / Degree    3.099459 / rad

 *******************************************
 * Values of the constraints   / au or rad *
 *******************************************
   Label        C         C0
 Cns001      4.876263  4.157397
 Cns002      1.979683  1.889726
 Cns003      3.099459  3.141593

   3  -289.90779121  -289.90531585     0.00247536  0.03730176  0.05789489  0.00766837  0.44499807  0.85865860  0.01506419     10.98

 Constraints section
ConstraintsConstraintsConstraintsConstraintsConstraintsConstraintsConstraintsConstraintsConstraintsConstraints
ConstraintsConstraintsConstraintsConstraintsConstraintsConstraintsConstraintsConstraintsConstraintsConstraints
Constraints                                                                                        Constraints
Constraints                                 C O N S T R A I N T S                                  Constraints
Constraints                                                                                        Constraints

************************************************************************************************************************
BO0001 = BOND       H11   C6
BO0002 = BOND       H11   C17
AN0001 = ANGLE      C6    H11   C17
VALUES
BO0001 =      2.20000000 ANGSTROM
BO0002 =      1.00000000 ANGSTROM
AN0001 =    180.00000000 DEGREE
************************************************************************************************************************


 *************************************************************
 * Values of the primitive constraints                       *
 *************************************************************
 BO0001   : Bond Length=  2.323148 / Angstrom  4.390114 / bohr
 BO0002   : Bond Length=  1.015411 / Angstrom  1.918848 / bohr
  Valence angle close to end in range of definition
 AN0001   : Angle=      179.1787   / Degree    3.127259 / rad

 *******************************************
 * Values of the constraints   / au or rad *
 *******************************************
   Label        C         C0
 Cns001      4.390114  4.157397
 Cns002      1.918848  1.889726
 Cns003      3.127259  3.141593

   4  -289.90531585  -289.90411555     0.00120031  0.06977871  0.10185475  0.01349099  0.18968284  0.43986077  0.00771686     14.53

 Constraints section
ConstraintsConstraintsConstraintsConstraintsConstraintsConstraintsConstraintsConstraintsConstraintsConstraints
ConstraintsConstraintsConstraintsConstraintsConstraintsConstraintsConstraintsConstraintsConstraintsConstraints
Constraints                                                                                        Constraints
Constraints                                 C O N S T R A I N T S                                  Constraints
Constraints                                                                                        Constraints

************************************************************************************************************************
BO0001 = BOND       H11   C6
BO0002 = BOND       H11   C17
AN0001 = ANGLE      C6    H11   C17
VALUES
BO0001 =      2.20000000 ANGSTROM
BO0002 =      1.00000000 ANGSTROM
AN0001 =    180.00000000 DEGREE
************************************************************************************************************************


 *************************************************************
 * Values of the primitive constraints                       *
 *************************************************************
 BO0001   : Bond Length=  2.244536 / Angstrom  4.241558 / bohr
 BO0002   : Bond Length=  1.005573 / Angstrom  1.900258 / bohr
  Valence angle close to end in range of definition
 AN0001   : Angle=      179.6977   / Degree    3.136317 / rad

 *******************************************
 * Values of the constraints   / au or rad *
 *******************************************
   Label        C         C0
 Cns001      4.241558  4.157397
 Cns002      1.900258  1.889726
 Cns003      3.136317  3.141593

   5  -289.90411555  -289.90312695     0.00098860  0.08104636  0.11737938  0.01554728  0.09392540  0.22396157  0.00392915     18.05

 Constraints section
ConstraintsConstraintsConstraintsConstraintsConstraintsConstraintsConstraintsConstraintsConstraintsConstraints
ConstraintsConstraintsConstraintsConstraintsConstraintsConstraintsConstraintsConstraintsConstraintsConstraints
Constraints                                                                                        Constraints
Constraints                                 C O N S T R A I N T S                                  Constraints
Constraints                                                                                        Constraints

************************************************************************************************************************
BO0001 = BOND       H11   C6
BO0002 = BOND       H11   C17
AN0001 = ANGLE      C6    H11   C17
VALUES
BO0001 =      2.20000000 ANGSTROM
BO0002 =      1.00000000 ANGSTROM
AN0001 =    180.00000000 DEGREE
************************************************************************************************************************


 *************************************************************
 * Values of the primitive constraints                       *
 *************************************************************
 BO0001   : Bond Length=  2.200000 / Angstrom  4.157397 / bohr
 BO0002   : Bond Length=  1.000000 / Angstrom  1.889726 / bohr
  Valence angle close to end in range of definition
 AN0001   : Angle=      179.9411   / Degree    3.140566 / rad

 *******************************************
 * Values of the constraints   / au or rad *
 *******************************************
   Label        C         C0
 Cns001      4.157397  4.157397
 Cns002      1.889726  1.889726
 Cns003      3.140566  3.141593

   6  -289.90312695  -289.90318565    -0.00005871  0.08839775  0.12726807  0.01685707  0.08131536  0.15729560  0.00275957     21.42

 Constraints section
ConstraintsConstraintsConstraintsConstraintsConstraintsConstraintsConstraintsConstraintsConstraintsConstraints
ConstraintsConstraintsConstraintsConstraintsConstraintsConstraintsConstraintsConstraintsConstraintsConstraints
Constraints                                                                                        Constraints
Constraints                                 C O N S T R A I N T S                                  Constraints
Constraints                                                                                        Constraints

************************************************************************************************************************
BO0001 = BOND       H11   C6
BO0002 = BOND       H11   C17
AN0001 = ANGLE      C6    H11   C17
VALUES
BO0001 =      2.20000000 ANGSTROM
BO0002 =      1.00000000 ANGSTROM
AN0001 =    180.00000000 DEGREE
************************************************************************************************************************


 *************************************************************
 * Values of the primitive constraints                       *
 *************************************************************
 BO0001   : Bond Length=  2.200000 / Angstrom  4.157397 / bohr
 BO0002   : Bond Length=  1.000000 / Angstrom  1.889726 / bohr
  Valence angle close to end in range of definition
 AN0001   : Angle=      179.9620   / Degree    3.140930 / rad

 *******************************************
 * Values of the constraints   / au or rad *
 *******************************************
   Label        C         C0
 Cns001      4.157397  4.157397
 Cns002      1.889726  1.889726
 Cns003      3.140930  3.141593

   7  -289.90318565  -289.90326666    -0.00008100  0.08854239  0.12728268  0.01685900  0.04521507  0.10572372  0.00185480     24.85

 Constraints section
ConstraintsConstraintsConstraintsConstraintsConstraintsConstraintsConstraintsConstraintsConstraintsConstraints
ConstraintsConstraintsConstraintsConstraintsConstraintsConstraintsConstraintsConstraintsConstraintsConstraints
Constraints                                                                                        Constraints
Constraints                                 C O N S T R A I N T S                                  Constraints
Constraints                                                                                        Constraints

************************************************************************************************************************
BO0001 = BOND       H11   C6
BO0002 = BOND       H11   C17
AN0001 = ANGLE      C6    H11   C17
VALUES
BO0001 =      2.20000000 ANGSTROM
BO0002 =      1.00000000 ANGSTROM
AN0001 =    180.00000000 DEGREE
************************************************************************************************************************


 *************************************************************
 * Values of the primitive constraints                       *
 *************************************************************
 BO0001   : Bond Length=  2.200000 / Angstrom  4.157397 / bohr
 BO0002   : Bond Length=  1.000000 / Angstrom  1.889726 / bohr
  Valence angle close to end in range of definition
 AN0001   : Angle=      179.9455   / Degree    3.140641 / rad

 *******************************************
 * Values of the constraints   / au or rad *
 *******************************************
   Label        C         C0
 Cns001      4.157397  4.157397
 Cns002      1.889726  1.889726
 Cns003      3.140641  3.141593

   8  -289.90326666  -289.90324764     0.00001902  0.08858183  0.12717111  0.01684422  0.01253101  0.03564023  0.00062527     27.85

 Constraints section
ConstraintsConstraintsConstraintsConstraintsConstraintsConstraintsConstraintsConstraintsConstraintsConstraints
ConstraintsConstraintsConstraintsConstraintsConstraintsConstraintsConstraintsConstraintsConstraintsConstraints
Constraints                                                                                        Constraints
Constraints                                 C O N S T R A I N T S                                  Constraints
Constraints                                                                                        Constraints

************************************************************************************************************************
BO0001 = BOND       H11   C6
BO0002 = BOND       H11   C17
AN0001 = ANGLE      C6    H11   C17
VALUES
BO0001 =      2.20000000 ANGSTROM
BO0002 =      1.00000000 ANGSTROM
AN0001 =    180.00000000 DEGREE
************************************************************************************************************************


 *************************************************************
 * Values of the primitive constraints                       *
 *************************************************************
 BO0001   : Bond Length=  2.200000 / Angstrom  4.157397 / bohr
 BO0002   : Bond Length=  1.000000 / Angstrom  1.889726 / bohr
  Valence angle close to end in range of definition
 AN0001   : Angle=      179.7450   / Degree    3.137143 / rad

 *******************************************
 * Values of the constraints   / au or rad *
 *******************************************
   Label        C         C0
 Cns001      4.157397  4.157397
 Cns002      1.889726  1.889726
 Cns003      3.137143  3.141593

   9  -289.90324764  -289.90325726    -0.00000963  0.08849023  0.12708257  0.01683250  0.01737110  0.05248443  0.00092078     30.84

 Constraints section
ConstraintsConstraintsConstraintsConstraintsConstraintsConstraintsConstraintsConstraintsConstraintsConstraints
ConstraintsConstraintsConstraintsConstraintsConstraintsConstraintsConstraintsConstraintsConstraintsConstraints
Constraints                                                                                        Constraints
Constraints                                 C O N S T R A I N T S                                  Constraints
Constraints                                                                                        Constraints

************************************************************************************************************************
BO0001 = BOND       H11   C6
BO0002 = BOND       H11   C17
AN0001 = ANGLE      C6    H11   C17
VALUES
BO0001 =      2.20000000 ANGSTROM
BO0002 =      1.00000000 ANGSTROM
AN0001 =    180.00000000 DEGREE
************************************************************************************************************************


 *************************************************************
 * Values of the primitive constraints                       *
 *************************************************************
 BO0001   : Bond Length=  2.200000 / Angstrom  4.157397 / bohr
 BO0002   : Bond Length=  1.000000 / Angstrom  1.889726 / bohr
  Valence angle close to end in range of definition
 AN0001   : Angle=      179.8893   / Degree    3.139661 / rad

 *******************************************
 * Values of the constraints   / au or rad *
 *******************************************
   Label        C         C0
 Cns001      4.157397  4.157397
 Cns002      1.889726  1.889726
 Cns003      3.139661  3.141593

  10  -289.90325726  -289.90325122     0.00000604  0.08844938  0.12702797  0.01682527  0.01657151  0.03504669  0.00061485     34.05

 Constraints section
ConstraintsConstraintsConstraintsConstraintsConstraintsConstraintsConstraintsConstraintsConstraintsConstraints
ConstraintsConstraintsConstraintsConstraintsConstraintsConstraintsConstraintsConstraintsConstraintsConstraints
Constraints                                                                                        Constraints
Constraints                                 C O N S T R A I N T S                                  Constraints
Constraints                                                                                        Constraints

************************************************************************************************************************
BO0001 = BOND       H11   C6
BO0002 = BOND       H11   C17
AN0001 = ANGLE      C6    H11   C17
VALUES
BO0001 =      2.20000000 ANGSTROM
BO0002 =      1.00000000 ANGSTROM
AN0001 =    180.00000000 DEGREE
************************************************************************************************************************


 *************************************************************
 * Values of the primitive constraints                       *
 *************************************************************
 BO0001   : Bond Length=  2.200000 / Angstrom  4.157397 / bohr
 BO0002   : Bond Length=  1.000000 / Angstrom  1.889726 / bohr
  Valence angle close to end in range of definition
 AN0001   : Angle=      179.2592   / Degree    3.128663 / rad

 *******************************************
 * Values of the constraints   / au or rad *
 *******************************************
   Label        C         C0
 Cns001      4.157397  4.157397
 Cns002      1.889726  1.889726
 Cns003      3.128663  3.141593

  11  -289.90325122  -289.90323703     0.00001419  0.08852925  0.12709661  0.01683436  0.02254352  0.03598810  0.00063137     37.38

 Constraints section
ConstraintsConstraintsConstraintsConstraintsConstraintsConstraintsConstraintsConstraintsConstraintsConstraints
ConstraintsConstraintsConstraintsConstraintsConstraintsConstraintsConstraintsConstraintsConstraintsConstraints
Constraints                                                                                        Constraints
Constraints                                 C O N S T R A I N T S                                  Constraints
Constraints                                                                                        Constraints

************************************************************************************************************************
BO0001 = BOND       H11   C6
BO0002 = BOND       H11   C17
AN0001 = ANGLE      C6    H11   C17
VALUES
BO0001 =      2.20000000 ANGSTROM
BO0002 =      1.00000000 ANGSTROM
AN0001 =    180.00000000 DEGREE
************************************************************************************************************************


 *************************************************************
 * Values of the primitive constraints                       *
 *************************************************************
 BO0001   : Bond Length=  2.200000 / Angstrom  4.157397 / bohr
 BO0002   : Bond Length=  1.000000 / Angstrom  1.889726 / bohr
  Valence angle close to end in range of definition
 AN0001   : Angle=      179.9855   / Degree    3.141340 / rad

 *******************************************
 * Values of the constraints   / au or rad *
 *******************************************
   Label        C         C0
 Cns001      4.157397  4.157397
 Cns002      1.889726  1.889726
 Cns003      3.141340  3.141593

  12  -289.90323703  -289.90323772    -0.00000068  0.08850988  0.12704399  0.01682739  0.02068045  0.05201242  0.00091250     40.33

 Constraints section
ConstraintsConstraintsConstraintsConstraintsConstraintsConstraintsConstraintsConstraintsConstraintsConstraints
ConstraintsConstraintsConstraintsConstraintsConstraintsConstraintsConstraintsConstraintsConstraintsConstraints
Constraints                                                                                        Constraints
Constraints                                 C O N S T R A I N T S                                  Constraints
Constraints                                                                                        Constraints

************************************************************************************************************************
BO0001 = BOND       H11   C6
BO0002 = BOND       H11   C17
AN0001 = ANGLE      C6    H11   C17
VALUES
BO0001 =      2.20000000 ANGSTROM
BO0002 =      1.00000000 ANGSTROM
AN0001 =    180.00000000 DEGREE
************************************************************************************************************************


 *************************************************************
 * Values of the primitive constraints                       *
 *************************************************************
 BO0001   : Bond Length=  2.200000 / Angstrom  4.157397 / bohr
 BO0002   : Bond Length=  1.000000 / Angstrom  1.889726 / bohr
  Valence angle close to end in range of definition
 AN0001   : Angle=      179.5769   / Degree    3.134209 / rad

 *******************************************
 * Values of the constraints   / au or rad *
 *******************************************
   Label        C         C0
 Cns001      4.157397  4.157397
 Cns002      1.889726  1.889726
 Cns003      3.134209  3.141593

 Geometry section
 Geometry section
  13  -289.90323772  -289.90323741     0.00000030  0.00015146  0.00038117  0.00005502  0.01563267  0.03760862  0.00065980     43.33

 END OF GEOMETRY OPTIMIZATION.

 Current geometry (xyz format, in Angstrom)

   19
 CF-UKS-SCF000/SVP  ENERGY=-289.90323741
 C         -8.2978717475        2.4840195277       -0.4231776530
 C         -6.7743248146        2.3864336756       -0.2339876120
 H         -8.5583456967        2.6654248413       -1.4876075102
 H         -8.7232403721        3.3180705534        0.1706448929
 H         -8.8064014520        1.5502686927       -0.1068907859
 C         -6.0730972125        3.6942519027       -0.6440844250
 C         -6.2112617145        1.1589777178       -0.8996871398
 H         -6.5932909822        2.2618665070        0.8688231436
 H         -6.1959472761        3.8917094356       -1.7302515851
 H         -4.9871205634        3.6745996265       -0.4245365492
 H         -6.5055373424        4.5568972939       -0.0981377864
 H         -6.6762564992        1.4395125466       -3.0316064770
 H         -6.8671221345        0.2687087382       -0.9085646912
 C         -4.7487793279        0.9337934329       -1.0966412869
 H         -4.2469422577        1.7805926823       -1.6137070867
 H         -4.5449477037        0.0113837594       -1.6760094790
 H         -4.2125525164        0.8206681671       -0.1202149825
 C         -6.8872092341        1.5668790479       -4.0007693723
 N         -7.1431511528        1.7254318516       -5.1282636142

 **********************************************************************************************************************************

 Geometry written to block  1 of record 700


 **********************************************************************************************************************************
 DATASETS  * FILE   NREC   LENGTH (MB)   RECORD NAMES
              1      19       31.21       500      610      700      900      950      970     1000      129      960     1100   
                                          VAR    BASINP    GEOM    SYMINP    ZMAT    AOBASIS   BASIS     P2S    ABASIS      S 
                                         1400     1410     1200     1210     1080     1600     1650     1700     1800   
                                           T        V       H0       H01     AOSYM     SMH    MOLCAS    OPER     GRID   

              2       7        8.00       700     1000      520     2100     1800     2200      520(1)
                                         GEOM     BASIS   MCVARS     RHF     GRID      UKS    MCVARS    

 PROGRAMS   *        TOTAL      OPTG    DF-UKS     DF-HF       INT
 CPU TIMES  *        49.73     43.33      2.84      2.90      0.53
 REAL TIME  *        52.87 SEC
 DISK USED  *        42.67 MB (local),      170.67 MB (total)
 SF USED    *        31.68 MB
 GA USED    *         3.27 MB       (max)       2.10 MB       (current)
 **********************************************************************************************************************************

 Density functional group PBE0=PBEX+PBEC
 Functional: PBEX(Automatically generated (new) PBEX)                          Gradient terms: 1
 Functional: PBEC(Automatically generated (new) PBEC)                          Gradient terms: 1
 Use libxcgrid:  F
 Use grid at  1800.2


 Exact exchange will be calculated, factor:  0.2500

 Functional: PBEX                      Factor:  0.7500
 Functional: PBEC                      Factor:  1.0000

  129907 words reserved for DFT integration

 PROGRAM * UKS-SCF (Unrestricted Kohn-Sham)     Authors: W. Meyer, H.-J. Werner, P.J. Knowles, 1993

 NUMBER OF ELECTRONS:      28+   27-    SPACE SYMMETRY=1    SPIN SYMMETRY: Doublet 
 CONVERGENCE THRESHOLDS:    1.00E-06 (Density)    1.00E-06 (Energy)
 INTEGRAL THRESHOLDS:       1.00E-11 (Initial)    1.00E-11 (Final)
 MAX. NUMBER OF ITERATIONS:       60
 INTERPOLATION TYPE:            DIIS
 INTERPOLATION STEPS:              2 (START)      1 (STEP)
 LEVEL SHIFTS:                 -0.20 (ALPHA)  -0.20 (BETA) 



 Use fine grid record 1800.2 for energy threshold  1.0D-06

 Coulomb fitting
 Screening thresholds:    THRAO_COUL= 1.0D-14    THRAO= 1.0D-12    THROV= 1.0D-12

 Reserved 1 MW to cache 100.0% of significant integrals (4 MW global). CPU: 0.1 sec

 Molecular orbitals read from record     2200.2  Type=UKS/ALPHA (state 1.1)
 Molecular orbitals read from record     2200.2  Type=UKS/BETA (state 1.1)

 Molecular orbital dump at record        2201.2

 Initial alpha occupation  28
 Initial beta  occupation  27

 Direct Fock-matrix evaluation.        Author: H.-J. Werner (1996)

 Integral Threshold:                  0.1D-09

 ITERATION   DDIFF            GRAD            ENERGY        2-EL.EN.            DIPOLE MOMENTS         DIIS   CPU(IT)  CPU(TOT)
    1      0.000D+00      0.000D+00      -289.94484152    810.096971    0.36587   -0.08362    1.41065    0      2.7      2.8
    2      0.151D-02      0.576D-03      -289.94780827    809.690805    0.36856   -0.09197    1.43555    1      2.0      4.8
    3      0.556D-03      0.122D-03      -289.94815309    809.860513    0.36971   -0.09307    1.44628    2      2.0      6.8
    4      0.256D-03      0.454D-04      -289.94823167    809.797826    0.36906   -0.09426    1.45106    3      1.9      8.7
    5      0.870D-04      0.208D-04      -289.94824573    809.850275    0.36753   -0.09392    1.44684    4      2.0     10.6
    6      0.311D-04      0.123D-04      -289.94824860    809.854589    0.36831   -0.09477    1.45091    5      2.2     12.8
    7      0.186D-04      0.667D-05      -289.94824968    809.847228    0.36769   -0.09450    1.44868    6      2.6     15.4
    8      0.664D-05      0.146D-05      -289.94824978    809.847520    0.36768   -0.09464    1.44864    7      2.0     17.4
    9      0.247D-05      0.671D-06      -289.94824979    809.847731    0.36766   -0.09463    1.44857    8      1.9     19.3
   10      0.663D-06      0.217D-06      -289.94824979    809.847823    0.36767   -0.09463    1.44855    8      1.8     21.1
   11      0.216D-06      0.126D-06      -289.94824979    809.847753    0.36767   -0.09464    1.44855    8      1.7     22.8

 Final alpha occupancy:  28
 Final beta  occupancy:  27

 !UKS STATE  1.1 Energy              -289.948249794320
 Nuclear energy                       278.16756956
 One-electron energy                 -940.11095693
 Two-electron energy                  404.92387654
 Density functional                   -32.92873896     PBEX=-41.55266597 PBEC= -1.76423949
 Virial quotient                       -1.01166468
 !UKS STATE  1.1 Dipole moment          0.36766866    -0.09463622     1.44855392
 Dipole moment /Debye                   0.93445930    -0.24052553     3.68161567

 Orbital energies for positive spin:

         1.1          2.1          3.1          4.1          5.1          6.1          7.1          8.1          9.1         10.1
    -14.407183   -10.274624   -10.259281   -10.256342   -10.247529   -10.238447   -10.237487    -0.923490    -0.842803    -0.764840

        11.1         12.1         13.1         14.1         15.1         16.1         17.1         18.1         19.1         20.1
     -0.704919    -0.651513    -0.627464    -0.565484    -0.491212    -0.471777    -0.455123    -0.434459    -0.409806    -0.401147

        21.1         22.1         23.1         24.1         25.1         26.1         27.1         28.1         29.1         30.1
     -0.388909    -0.385941    -0.366324    -0.365075    -0.362133    -0.356313    -0.351316    -0.223576     0.018770     0.022042

 Orbital energies for negative spin:

         1.1          2.1          3.1          4.1          5.1          6.1          7.1          8.1          9.1         10.1
    -14.407240   -10.273752   -10.257343   -10.248607   -10.244170   -10.238052   -10.237220    -0.923120    -0.831930    -0.755711

        11.1         12.1         13.1         14.1         15.1         16.1         17.1         18.1         19.1         20.1
     -0.703781    -0.640539    -0.623064    -0.551980    -0.483976    -0.467764    -0.449944    -0.421494    -0.409105    -0.399822

        21.1         22.1         23.1         24.1         25.1         26.1         27.1         28.1         29.1         30.1
     -0.386026    -0.385329    -0.365345    -0.364686    -0.357801    -0.353714    -0.345339    -0.058203     0.019671     0.022911


 HOMO     28.1    -0.223576 =      -6.0838eV
 LUMO    -28.1    -0.058203 =      -1.5838eV
 LUMO-HOMO         0.165373 =       4.5000eV

 EXPECTATION VALUE OF S**2:             0.75472068

 Occupation number threshold for pseudo-canonical orbitals: 1.9990 (occupied), 0.0010 (virtual)

 Number of pseudo-canonical occupied orbitals per symmetry:   26
 Number of active natural orbitals per symmetry:               3

 Natural orbitals saved to record    2201.2 (Orbital set 3)

 Orbital spaces for UNO-CAS (Min. occupation: 0.020  Max. occupation: 1.980):

 Closed:       27
 Active:        1


 **********************************************************************************************************************************
 DATASETS  * FILE   NREC   LENGTH (MB)   RECORD NAMES
              1      19       31.21       500      610      700      900      950      970     1000      129      960     1100   
                                          VAR    BASINP    GEOM    SYMINP    ZMAT    AOBASIS   BASIS     P2S    ABASIS      S 
                                         1400     1410     1200     1210     1080     1600     1650     1700     1800   
                                           T        V       H0       H01     AOSYM     SMH    MOLCAS    OPER     GRID   

              2       8       11.51       700     1000      520     2100     1800     2200      520(1)  2201   
                                         GEOM     BASIS   MCVARS     RHF     GRID      UKS    MCVARS     UKS  

 PROGRAMS   *        TOTAL    DF-UKS      OPTG    DF-UKS     DF-HF       INT
 CPU TIMES  *        72.57     22.84     43.33      2.84      2.90      0.53
 REAL TIME  *        76.47 SEC
 DISK USED  *        42.78 MB (local),      171.13 MB (total)
 SF USED    *        31.68 MB
 GA USED    *         3.27 MB       (max)       2.10 MB       (current)
 **********************************************************************************************************************************


 PROGRAM * OPT (Geometry optimization)     Authors: F. Eckert and H.-J. Werner


 BFGS update of hessian


********** USER DEFINED INT/FIX/CONSTRAINTS ****************

List of primitive internal coordinates

     N      Name     Type   Natoms   Atom list

     1    Bo0001     Bond        2      H11  C6  
     2    Bo0002     Bond        2      H11  C17 
     3    An0001     Angle       3      C6   H11  C17 

List of user defined internal/fixed coordinates and constraints

- - - - - - - - - - - - - - - - - - - - - - - - - - - - - - - - - 
    N      Name   Type      Pname     Coeff       Value   Unit
- - - - - - - - - - - - - - - - - - - - - - - - - - - - - - - - - 
    1    Cns001    Con     Bo0001     1.000     2.20000 Angstrom
- - - - - - - - - - - - - - - - - - - - - - - - - - - - - - - - - 
    2    Cns002    Con     Bo0002     1.000     1.00000 Angstrom
- - - - - - - - - - - - - - - - - - - - - - - - - - - - - - - - - 
    3    Cns003    Con     An0001     1.000   180.00000   Degree
- - - - - - - - - - - - - - - - - - - - - - - - - - - - - - - - - 


******************************************************************



 Geometry optimization using default procedure for command CF-UKS-SCF

 Geometry written to block  1 of record 700

 SLAPAF optimizer by R. Lindh and Ignacio F. Galvan entered

 Constraints section
ConstraintsConstraintsConstraintsConstraintsConstraintsConstraintsConstraintsConstraintsConstraintsConstraints
ConstraintsConstraintsConstraintsConstraintsConstraintsConstraintsConstraintsConstraintsConstraintsConstraints
Constraints                                                                                        Constraints
Constraints                                 C O N S T R A I N T S                                  Constraints
Constraints                                                                                        Constraints

************************************************************************************************************************
BO0001 = BOND       H11   C6
BO0002 = BOND       H11   C17
AN0001 = ANGLE      C6    H11   C17
VALUES
BO0001 =      2.20000000 ANGSTROM
BO0002 =      1.00000000 ANGSTROM
AN0001 =    180.00000000 DEGREE
************************************************************************************************************************


 *************************************************************
 * Values of the primitive constraints                       *
 *************************************************************
 BO0001   : Bond Length=  2.200000 / Angstrom  4.157397 / bohr
 BO0002   : Bond Length=  1.000000 / Angstrom  1.889726 / bohr
  Valence angle close to end in range of definition
 AN0001   : Angle=      179.9743   / Degree    3.141144 / rad

 *******************************************
 * Values of the constraints   / au or rad *
 *******************************************
   Label        C         C0
 Cns001      4.157397  4.157397
 Cns002      1.889726  1.889726
 Cns003      3.141144  3.141593


 ITER.   ENERGY(OLD)    ENERGY(NEW)      DE          GRADMAX     GRADNORM    GRADRMS     STEPMAX     STEPLEN     STEPRMS   CPU-time
   1  -289.94824979  -289.94925825    -0.00100845  0.11468212  0.14930831  0.01977637  0.02224298  0.07596367  0.00133270     26.89

 Constraints section
ConstraintsConstraintsConstraintsConstraintsConstraintsConstraintsConstraintsConstraintsConstraintsConstraints
ConstraintsConstraintsConstraintsConstraintsConstraintsConstraintsConstraintsConstraintsConstraintsConstraints
Constraints                                                                                        Constraints
Constraints                                 C O N S T R A I N T S                                  Constraints
Constraints                                                                                        Constraints

************************************************************************************************************************
BO0001 = BOND       H11   C6
BO0002 = BOND       H11   C17
AN0001 = ANGLE      C6    H11   C17
VALUES
BO0001 =      2.20000000 ANGSTROM
BO0002 =      1.00000000 ANGSTROM
AN0001 =    180.00000000 DEGREE
************************************************************************************************************************


 *************************************************************
 * Values of the primitive constraints                       *
 *************************************************************
 BO0001   : Bond Length=  2.200000 / Angstrom  4.157397 / bohr
 BO0002   : Bond Length=  1.000000 / Angstrom  1.889726 / bohr
  Valence angle close to end in range of definition
 AN0001   : Angle=      179.9745   / Degree    3.141148 / rad

 *******************************************
 * Values of the constraints   / au or rad *
 *******************************************
   Label        C         C0
 Cns001      4.157397  4.157397
 Cns002      1.889726  1.889726
 Cns003      3.141148  3.141593

   2  -289.94925825  -289.94935644    -0.00009820  0.08003750  0.11676111  0.01546539  0.01137611  0.04077757  0.00071540     51.92

 Constraints section
ConstraintsConstraintsConstraintsConstraintsConstraintsConstraintsConstraintsConstraintsConstraintsConstraints
ConstraintsConstraintsConstraintsConstraintsConstraintsConstraintsConstraintsConstraintsConstraintsConstraints
Constraints                                                                                        Constraints
Constraints                                 C O N S T R A I N T S                                  Constraints
Constraints                                                                                        Constraints

************************************************************************************************************************
BO0001 = BOND       H11   C6
BO0002 = BOND       H11   C17
AN0001 = ANGLE      C6    H11   C17
VALUES
BO0001 =      2.20000000 ANGSTROM
BO0002 =      1.00000000 ANGSTROM
AN0001 =    180.00000000 DEGREE
************************************************************************************************************************


 *************************************************************
 * Values of the primitive constraints                       *
 *************************************************************
 BO0001   : Bond Length=  2.200000 / Angstrom  4.157397 / bohr
 BO0002   : Bond Length=  1.000000 / Angstrom  1.889726 / bohr
  Valence angle close to end in range of definition
 AN0001   : Angle=      179.9936   / Degree    3.141481 / rad

 *******************************************
 * Values of the constraints   / au or rad *
 *******************************************
   Label        C         C0
 Cns001      4.157397  4.157397
 Cns002      1.889726  1.889726
 Cns003      3.141481  3.141593

   3  -289.94935644  -289.94936061    -0.00000417  0.08160386  0.11772018  0.01559242  0.00812130  0.02244708  0.00039381     76.91

 Constraints section
ConstraintsConstraintsConstraintsConstraintsConstraintsConstraintsConstraintsConstraintsConstraintsConstraints
ConstraintsConstraintsConstraintsConstraintsConstraintsConstraintsConstraintsConstraintsConstraintsConstraints
Constraints                                                                                        Constraints
Constraints                                 C O N S T R A I N T S                                  Constraints
Constraints                                                                                        Constraints

************************************************************************************************************************
BO0001 = BOND       H11   C6
BO0002 = BOND       H11   C17
AN0001 = ANGLE      C6    H11   C17
VALUES
BO0001 =      2.20000000 ANGSTROM
BO0002 =      1.00000000 ANGSTROM
AN0001 =    180.00000000 DEGREE
************************************************************************************************************************


 *************************************************************
 * Values of the primitive constraints                       *
 *************************************************************
 BO0001   : Bond Length=  2.200000 / Angstrom  4.157397 / bohr
 BO0002   : Bond Length=  1.000000 / Angstrom  1.889726 / bohr
  Valence angle close to end in range of definition
 AN0001   : Angle=      179.9994   / Degree    3.141582 / rad

 *******************************************
 * Values of the constraints   / au or rad *
 *******************************************
   Label        C         C0
 Cns001      4.157397  4.157397
 Cns002      1.889726  1.889726
 Cns003      3.141582  3.141593

   4  -289.94936061  -289.94936242    -0.00000180  0.08332848  0.11896958  0.01575791  0.01044627  0.02464703  0.00043240     99.93

 Constraints section
ConstraintsConstraintsConstraintsConstraintsConstraintsConstraintsConstraintsConstraintsConstraintsConstraints
ConstraintsConstraintsConstraintsConstraintsConstraintsConstraintsConstraintsConstraintsConstraintsConstraints
Constraints                                                                                        Constraints
Constraints                                 C O N S T R A I N T S                                  Constraints
Constraints                                                                                        Constraints

************************************************************************************************************************
BO0001 = BOND       H11   C6
BO0002 = BOND       H11   C17
AN0001 = ANGLE      C6    H11   C17
VALUES
BO0001 =      2.20000000 ANGSTROM
BO0002 =      1.00000000 ANGSTROM
AN0001 =    180.00000000 DEGREE
************************************************************************************************************************


 *************************************************************
 * Values of the primitive constraints                       *
 *************************************************************
 BO0001   : Bond Length=  2.200000 / Angstrom  4.157397 / bohr
 BO0002   : Bond Length=  1.000000 / Angstrom  1.889726 / bohr
  Valence angle close to end in range of definition
 AN0001   : Angle=      179.9989   / Degree    3.141574 / rad

 *******************************************
 * Values of the constraints   / au or rad *
 *******************************************
   Label        C         C0
 Cns001      4.157397  4.157397
 Cns002      1.889726  1.889726
 Cns003      3.141574  3.141593

   5  -289.94936242  -289.94938844    -0.00002603  0.08354705  0.11909747  0.01577485  0.01116132  0.02889824  0.00050699    123.72

 Constraints section
ConstraintsConstraintsConstraintsConstraintsConstraintsConstraintsConstraintsConstraintsConstraintsConstraints
ConstraintsConstraintsConstraintsConstraintsConstraintsConstraintsConstraintsConstraintsConstraintsConstraints
Constraints                                                                                        Constraints
Constraints                                 C O N S T R A I N T S                                  Constraints
Constraints                                                                                        Constraints

************************************************************************************************************************
BO0001 = BOND       H11   C6
BO0002 = BOND       H11   C17
AN0001 = ANGLE      C6    H11   C17
VALUES
BO0001 =      2.20000000 ANGSTROM
BO0002 =      1.00000000 ANGSTROM
AN0001 =    180.00000000 DEGREE
************************************************************************************************************************


 *************************************************************
 * Values of the primitive constraints                       *
 *************************************************************
 BO0001   : Bond Length=  2.200000 / Angstrom  4.157397 / bohr
 BO0002   : Bond Length=  1.000000 / Angstrom  1.889726 / bohr
  Valence angle close to end in range of definition
 AN0001   : Angle=      179.9917   / Degree    3.141448 / rad

 *******************************************
 * Values of the constraints   / au or rad *
 *******************************************
   Label        C         C0
 Cns001      4.157397  4.157397
 Cns002      1.889726  1.889726
 Cns003      3.141448  3.141593

   6  -289.94938844  -289.94937485     0.00001359  0.08316708  0.11878370  0.01573329  0.01221798  0.03100685  0.00054398    146.63

 Constraints section
ConstraintsConstraintsConstraintsConstraintsConstraintsConstraintsConstraintsConstraintsConstraintsConstraints
ConstraintsConstraintsConstraintsConstraintsConstraintsConstraintsConstraintsConstraintsConstraintsConstraints
Constraints                                                                                        Constraints
Constraints                                 C O N S T R A I N T S                                  Constraints
Constraints                                                                                        Constraints

************************************************************************************************************************
BO0001 = BOND       H11   C6
BO0002 = BOND       H11   C17
AN0001 = ANGLE      C6    H11   C17
VALUES
BO0001 =      2.20000000 ANGSTROM
BO0002 =      1.00000000 ANGSTROM
AN0001 =    180.00000000 DEGREE
************************************************************************************************************************


 *************************************************************
 * Values of the primitive constraints                       *
 *************************************************************
 BO0001   : Bond Length=  2.200000 / Angstrom  4.157397 / bohr
 BO0002   : Bond Length=  1.000000 / Angstrom  1.889726 / bohr
  Valence angle close to end in range of definition
 AN0001   : Angle=      179.9941   / Degree    3.141490 / rad

 *******************************************
 * Values of the constraints   / au or rad *
 *******************************************
   Label        C         C0
 Cns001      4.157397  4.157397
 Cns002      1.889726  1.889726
 Cns003      3.141490  3.141593

   7  -289.94937485  -289.94937045     0.00000440  0.08286615  0.11853969  0.01570096  0.00948206  0.02466850  0.00043278    169.52

 Constraints section
ConstraintsConstraintsConstraintsConstraintsConstraintsConstraintsConstraintsConstraintsConstraintsConstraints
ConstraintsConstraintsConstraintsConstraintsConstraintsConstraintsConstraintsConstraintsConstraintsConstraints
Constraints                                                                                        Constraints
Constraints                                 C O N S T R A I N T S                                  Constraints
Constraints                                                                                        Constraints

************************************************************************************************************************
BO0001 = BOND       H11   C6
BO0002 = BOND       H11   C17
AN0001 = ANGLE      C6    H11   C17
VALUES
BO0001 =      2.20000000 ANGSTROM
BO0002 =      1.00000000 ANGSTROM
AN0001 =    180.00000000 DEGREE
************************************************************************************************************************


 *************************************************************
 * Values of the primitive constraints                       *
 *************************************************************
 BO0001   : Bond Length=  2.200000 / Angstrom  4.157397 / bohr
 BO0002   : Bond Length=  1.000000 / Angstrom  1.889726 / bohr
  Valence angle close to end in range of definition
 AN0001   : Angle=      179.9984   / Degree    3.141566 / rad

 *******************************************
 * Values of the constraints   / au or rad *
 *******************************************
   Label        C         C0
 Cns001      4.157397  4.157397
 Cns002      1.889726  1.889726
 Cns003      3.141566  3.141593

 Freezing grid
   8  -289.94937045  -289.94936180     0.00000865  0.08309848  0.11870754  0.01572320  0.00185904  0.00554799  0.00009733    193.11

 Constraints section
ConstraintsConstraintsConstraintsConstraintsConstraintsConstraintsConstraintsConstraintsConstraintsConstraints
ConstraintsConstraintsConstraintsConstraintsConstraintsConstraintsConstraintsConstraintsConstraintsConstraints
Constraints                                                                                        Constraints
Constraints                                 C O N S T R A I N T S                                  Constraints
Constraints                                                                                        Constraints

************************************************************************************************************************
BO0001 = BOND       H11   C6
BO0002 = BOND       H11   C17
AN0001 = ANGLE      C6    H11   C17
VALUES
BO0001 =      2.20000000 ANGSTROM
BO0002 =      1.00000000 ANGSTROM
AN0001 =    180.00000000 DEGREE
************************************************************************************************************************


 *************************************************************
 * Values of the primitive constraints                       *
 *************************************************************
 BO0001   : Bond Length=  2.200000 / Angstrom  4.157397 / bohr
 BO0002   : Bond Length=  1.000000 / Angstrom  1.889726 / bohr
  Valence angle close to end in range of definition
 AN0001   : Angle=      179.9985   / Degree    3.141567 / rad

 *******************************************
 * Values of the constraints   / au or rad *
 *******************************************
   Label        C         C0
 Cns001      4.157397  4.157397
 Cns002      1.889726  1.889726
 Cns003      3.141567  3.141593

   9  -289.94936180  -289.94936266    -0.00000085  0.08330542  0.11886486  0.01574404  0.00536937  0.01676936  0.00029420    215.43

 Constraints section
ConstraintsConstraintsConstraintsConstraintsConstraintsConstraintsConstraintsConstraintsConstraintsConstraints
ConstraintsConstraintsConstraintsConstraintsConstraintsConstraintsConstraintsConstraintsConstraintsConstraints
Constraints                                                                                        Constraints
Constraints                                 C O N S T R A I N T S                                  Constraints
Constraints                                                                                        Constraints

************************************************************************************************************************
BO0001 = BOND       H11   C6
BO0002 = BOND       H11   C17
AN0001 = ANGLE      C6    H11   C17
VALUES
BO0001 =      2.20000000 ANGSTROM
BO0002 =      1.00000000 ANGSTROM
AN0001 =    180.00000000 DEGREE
************************************************************************************************************************


 *************************************************************
 * Values of the primitive constraints                       *
 *************************************************************
 BO0001   : Bond Length=  2.200000 / Angstrom  4.157397 / bohr
 BO0002   : Bond Length=  1.000000 / Angstrom  1.889726 / bohr
  Valence angle close to end in range of definition
 AN0001   : Angle=      179.9988   / Degree    3.141572 / rad

 *******************************************
 * Values of the constraints   / au or rad *
 *******************************************
   Label        C         C0
 Cns001      4.157397  4.157397
 Cns002      1.889726  1.889726
 Cns003      3.141572  3.141593

 Geometry section
 Geometry section
  10  -289.94936266  -289.94936375    -0.00000110  0.00032903  0.00048476  0.00006997  0.00359626  0.00922682  0.00016187    239.88

 END OF GEOMETRY OPTIMIZATION.

 Current geometry (xyz format, in Angstrom)

   19
 CF-UKS-SCF001/SVP  ENERGY=-289.94936375
 C         -8.2880474637        2.4833594809       -0.4034317113
 C         -6.7730900299        2.3861526390       -0.2320323854
 H         -8.5588986950        2.6561128412       -1.4581253186
 H         -8.7015604219        3.3165045891        0.1850618766
 H         -8.7896508347        1.5595004327       -0.0759083680
 C         -6.0808288531        3.6848501714       -0.6483314570
 C         -6.2207234730        1.1692551634       -0.9111973599
 H         -6.5771870457        2.2560997517        0.8570623619
 H         -6.2124563413        3.8794409546       -1.7257695449
 H         -5.0010617223        3.6648706447       -0.4387814995
 H         -6.5057950092        4.5413949191       -0.1033114095
 H         -6.6654273184        1.4424499140       -3.0483925120
 H         -6.8764935951        0.2893712289       -0.9368551074
 C         -4.7620048887        0.9410673097       -1.0937627843
 H         -4.2635241610        1.7744662834       -1.6174356598
 H         -4.5593312405        0.0183727907       -1.6570528939
 H         -4.2426125690        0.8421895343       -0.1182481855
 C         -6.8675418893        1.5666501673       -4.0198470901
 N         -7.1071644486        1.7173811838       -5.1383109514

 **********************************************************************************************************************************

 Geometry written to block  1 of record 700


 **********************************************************************************************************************************
 DATASETS  * FILE   NREC   LENGTH (MB)   RECORD NAMES
              1      19       31.21       500      610      700      900      950      970     1000      129      960     1100   
                                          VAR    BASINP    GEOM    SYMINP    ZMAT    AOBASIS   BASIS     P2S    ABASIS      S 
                                         1400     1410     1200     1210     1080     1600     1650     1700     1800   
                                           T        V       H0       H01     AOSYM     SMH    MOLCAS    OPER     GRID   

              2       8       11.51       700     1000      520     2100     1800     2200      520(1)  2201   
                                         GEOM     BASIS   MCVARS     RHF     GRID      UKS    MCVARS     UKS  

 PROGRAMS   *        TOTAL      OPTG    DF-UKS      OPTG    DF-UKS     DF-HF       INT
 CPU TIMES  *       312.46    239.89     22.84     43.33      2.84      2.90      0.53
 REAL TIME  *       318.20 SEC
 DISK USED  *        46.18 MB (local),      184.71 MB (total)
 SF USED    *        31.68 MB
 GA USED    *         3.27 MB       (max)       2.12 MB       (current)
 **********************************************************************************************************************************

 Density functional group PBE=PBEX+PBEC
 Functional: PBEX(Automatically generated (new) PBEX)                          Gradient terms: 1
 Functional: PBEC(Automatically generated (new) PBEC)                          Gradient terms: 1
 Use libxcgrid:  F
 Use grid at  1800.2

 Functional: PBEX                      Factor:  1.0000
 Functional: PBEC                      Factor:  1.0000

  129907 words reserved for DFT integration

 PROGRAM * UKS-SCF (Unrestricted Kohn-Sham)     Authors: W. Meyer, H.-J. Werner, P.J. Knowles, 1993

[...]
 One-electron energy                 -943.18828683
 Two-electron energy                  406.49293384
 Density functional                   -33.03503821     PBEX=-41.70648564 PBEC= -1.75517398
 Virial quotient                       -1.00520727
 !UKS STATE  1.1 Dipole moment          0.36370527    -0.10772608     1.53548198
 Dipole moment /Debye                   0.92438603    -0.27379446     3.90255028

 Orbital energies for positive spin:

         1.1          2.1          3.1          4.1          5.1          6.1          7.1          8.1          9.1         10.1
    -14.397785   -10.257684   -10.249483   -10.245099   -10.232834   -10.223114   -10.222121    -0.939778    -0.855470    -0.776479

        11.1         12.1         13.1         14.1         15.1         16.1         17.1         18.1         19.1         20.1
     -0.716043    -0.661396    -0.635195    -0.574549    -0.495995    -0.476661    -0.458250    -0.439590    -0.413277    -0.405045

        21.1         22.1         23.1         24.1         25.1         26.1         27.1         28.1         29.1         30.1
     -0.393241    -0.391368    -0.371112    -0.370302    -0.365031    -0.357632    -0.353128    -0.225840     0.010732     0.012198

 Orbital energies for negative spin:

         1.1          2.1          3.1          4.1          5.1          6.1          7.1          8.1          9.1         10.1
    -14.397825   -10.256840   -10.245930   -10.234974   -10.233694   -10.222713   -10.221893    -0.939366    -0.844710    -0.767416

        11.1         12.1         13.1         14.1         15.1         16.1         17.1         18.1         19.1         20.1
     -0.714913    -0.650172    -0.630786    -0.560852    -0.488865    -0.472816    -0.453284    -0.426790    -0.412585    -0.403645

        21.1         22.1         23.1         24.1         25.1         26.1         27.1         28.1         29.1         30.1
     -0.392736    -0.388353    -0.370452    -0.369913    -0.360082    -0.355186    -0.347440    -0.062865     0.011786     0.013269


 HOMO     28.1    -0.225840 =      -6.1454eV
 LUMO    -28.1    -0.062865 =      -1.7106eV
 LUMO-HOMO         0.162975 =       4.4348eV

 EXPECTATION VALUE OF S**2:             0.75504223

 Occupation number threshold for pseudo-canonical orbitals: 1.9990 (occupied), 0.0010 (virtual)

 Number of pseudo-canonical occupied orbitals per symmetry:   26
 Number of active natural orbitals per symmetry:               3

 Natural orbitals saved to record    2204.2 (Orbital set 3)

 Orbital spaces for UNO-CAS (Min. occupation: 0.020  Max. occupation: 1.980):

 Closed:       27
 Active:        1


 **********************************************************************************************************************************
 DATASETS  * FILE   NREC   LENGTH (MB)   RECORD NAMES
              1      19       33.38       500      610      700      900      950      970     1001      129      960     1100   
                                          VAR    BASINP    GEOM    SYMINP    ZMAT    AOBASIS   BASIS     P2S    ABASIS      S 
                                         1400     1410     1200     1210     1080     1600     1650     1700     1800   
                                           T        V       H0       H01     AOSYM     SMH    MOLCAS    OPER     GRID   

              2      12       26.79       700     1000      520     2100     1800     2200      520(1)  2201     2202     1001   
                                         GEOM     BASIS   MCVARS     RHF     GRID      UKS    MCVARS     UKS      UKS     BASIS   
                                         2203     2204   
                                          UKS      UKS  

 PROGRAMS   *        TOTAL    DF-UKS    DF-UKS       INT    DF-UKS      OPTG    DF-UKS      OPTG    DF-UKS     DF-HF       INT
 CPU TIMES  *       439.99    119.93      4.87      0.24      2.49    239.89     22.84     43.33      2.84      2.90      0.53
 REAL TIME  *       446.11 SEC
 DISK USED  *        60.26 MB (local),      241.04 MB (total)
 SF USED    *        31.68 MB
 GA USED    *         3.27 MB       (max)       2.12 MB       (current)
 **********************************************************************************************************************************

 Density functional group PBE0=PBEX+PBEC
 Functional: PBEX(Automatically generated (new) PBEX)                          Gradient terms: 1
 Functional: PBEC(Automatically generated (new) PBEC)                          Gradient terms: 1
 Use libxcgrid:  F
 Use grid at  1800.2


 Exact exchange will be calculated, factor:  0.2500

 Functional: PBEX                      Factor:  0.7500
 Functional: PBEC                      Factor:  1.0000

  234265 words reserved for DFT integration

 PROGRAM * UKS-SCF (Unrestricted Kohn-Sham)     Authors: W. Meyer, H.-J. Werner, P.J. Knowles, 1993

 NUMBER OF ELECTRONS:      28+   27-    SPACE SYMMETRY=1    SPIN SYMMETRY: Doublet 
 CONVERGENCE THRESHOLDS:    1.00E-07 (Density)    1.00E-06 (Energy)
 INTEGRAL THRESHOLDS:       1.00E-11 (Initial)    1.00E-11 (Final)
 MAX. NUMBER OF ITERATIONS:       60
 INTERPOLATION TYPE:            DIIS
 INTERPOLATION STEPS:              2 (START)      1 (STEP)
 LEVEL SHIFTS:                 -0.20 (ALPHA)  -0.20 (BETA) 



 Use fine grid record 1800.2 for energy threshold  1.0D-06
 Molecular orbitals read from record     2204.2  Type=UKS/ALPHA (state 1.1)
 Molecular orbitals read from record     2204.2  Type=UKS/BETA (state 1.1)

 Molecular orbital dump at record        2205.2

 Initial alpha occupation  28
 Initial beta  occupation  27

 Direct Fock-matrix evaluation.        Author: H.-J. Werner (1996)

 Integral Threshold:                  0.1D-10

 ITERATION   DDIFF            GRAD            ENERGY        2-EL.EN.            DIPOLE MOMENTS         DIIS   CPU(IT)  CPU(TOT)
    1      0.000D+00      0.000D+00      -290.26537986    812.986409    0.36371   -0.10773    1.53548    0     12.1     12.1
    2      0.365D-04      0.824D-05      -290.26538140    812.982815    0.36370   -0.10776    1.53545    1      9.7     21.8
    3      0.116D-04      0.142D-05      -290.26538148    812.983851    0.36367   -0.10779    1.53536    2      9.6     31.4
    4      0.396D-05      0.298D-06      -290.26538149    812.983721    0.36368   -0.10782    1.53539    3      9.2     40.6
    5      0.126D-05      0.136D-06      -290.26538149    812.983947    0.36366   -0.10782    1.53532    4      9.0     49.6
    6      0.490D-06      0.869D-07      -290.26538149    812.983993    0.36368   -0.10783    1.53536    5      8.5     58.1
    7      0.183D-06      0.287D-07      -290.26538149    812.983953    0.36368   -0.10783    1.53535    6      8.3     66.4
    8      0.974D-07      0.807D-08      -290.26538149    812.983955    0.36368   -0.10784    1.53535    7      8.0     74.4
    9      0.211D-07      0.257D-08      -290.26538149    812.983964    0.36368   -0.10784    1.53535    7      7.2     81.6

 Final alpha occupancy:  28
 Final beta  occupancy:  27

 !UKS STATE  1.1 Energy              -290.265381492079
 Nuclear energy                       279.46474049
 One-electron energy                 -943.18735700
 Two-electron energy                  406.49198181
 Density functional                   -33.03474680     PBEX=-41.70603613 PBEC= -1.75521970
 Virial quotient                       -1.00522073
 !UKS STATE  1.1 Dipole moment          0.36367756    -0.10783660     1.53535294
 Dipole moment /Debye                   0.92431561    -0.27407535     3.90222233

 Orbital energies for positive spin:

         1.1          2.1          3.1          4.1          5.1          6.1          7.1          8.1          9.1         10.1
    -14.397825   -10.257771   -10.249485   -10.245109   -10.232885   -10.223158   -10.222166    -0.939780    -0.855469    -0.776484

        11.1         12.1         13.1         14.1         15.1         16.1         17.1         18.1         19.1         20.1
     -0.716047    -0.661396    -0.635205    -0.574548    -0.495997    -0.476663    -0.458256    -0.439594    -0.413288    -0.405045

        21.1         22.1         23.1         24.1         25.1         26.1         27.1         28.1         29.1         30.1
     -0.393211    -0.391365    -0.371128    -0.370321    -0.365029    -0.357636    -0.353123    -0.225821     0.010709     0.012177

 Orbital energies for negative spin:

         1.1          2.1          3.1          4.1          5.1          6.1          7.1          8.1          9.1         10.1
    -14.397866   -10.256927   -10.245941   -10.234976   -10.233744   -10.222757   -10.221938    -0.939369    -0.844708    -0.767420

        11.1         12.1         13.1         14.1         15.1         16.1         17.1         18.1         19.1         20.1
     -0.714918    -0.650169    -0.630800    -0.560848    -0.488866    -0.472816    -0.453291    -0.426794    -0.412596    -0.403645

        21.1         22.1         23.1         24.1         25.1         26.1         27.1         28.1         29.1         30.1
     -0.392706    -0.388351    -0.370470    -0.369932    -0.360077    -0.355191    -0.347433    -0.062831     0.011764     0.013248


 HOMO     28.1    -0.225821 =      -6.1449eV
 LUMO    -28.1    -0.062831 =      -1.7097eV
 LUMO-HOMO         0.162990 =       4.4352eV

 EXPECTATION VALUE OF S**2:             0.75504297

 Occupation number threshold for pseudo-canonical orbitals: 1.9990 (occupied), 0.0010 (virtual)

 Number of pseudo-canonical occupied orbitals per symmetry:   26
 Number of active natural orbitals per symmetry:               3

 Natural orbitals saved to record    2205.2 (Orbital set 3)

 Orbital spaces for UNO-CAS (Min. occupation: 0.020  Max. occupation: 1.980):

 Closed:       27
 Active:        1


 **********************************************************************************************************************************
 DATASETS  * FILE   NREC   LENGTH (MB)   RECORD NAMES
              1      19       33.38       500      610      700      900      950      970     1001      129      960     1100   
                                          VAR    BASINP    GEOM    SYMINP    ZMAT    AOBASIS   BASIS     P2S    ABASIS      S 
                                         1400     1410     1200     1210     1080     1600     1650     1700     1800   
                                           T        V       H0       H01     AOSYM     SMH    MOLCAS    OPER     GRID   

              2      13       32.64       700     1000      520     2100     1800     2200      520(1)  2201     2202     1001   
                                         GEOM     BASIS   MCVARS     RHF     GRID      UKS    MCVARS     UKS      UKS     BASIS   
                                         2203     2204     2205   
                                          UKS      UKS      UKS  

 PROGRAMS   *        TOTAL   UKS-SCF    DF-UKS    DF-UKS       INT    DF-UKS      OPTG    DF-UKS      OPTG    DF-UKS     DF-HF
 CPU TIMES  *       521.61     81.62    119.93      4.87      0.24      2.49    239.89     22.84     43.33      2.84      2.90
 REAL TIME  *       527.83 SEC
 DISK USED  *        66.11 MB (local),      264.46 MB (total)
 SF USED    *        31.68 MB
 GA USED    *         3.27 MB       (max)       2.12 MB       (current)
 **********************************************************************************************************************************

 Density functional group B3LYP=B88+DIRAC+LYP+VWN5
 Functional: B88(Automatically generated (new) B88)                            Gradient terms: 1
 Functional: DIRAC(Automatically generated (new) DIRAC)                        Gradient terms: 0
 Functional: LYP(Automatically generated (new) LYP)                            Gradient terms: 1
 Functional: VWN5(Automatically generated (new) VWN5)                          Gradient terms: 0
 Use libxcgrid:  F
 Use grid at  1800.2


 Exact exchange will be calculated, factor:  0.2000

 Functional: B88                       Factor:  0.7200
 Functional: DIRAC                     Factor:  0.0800
 Functional: LYP                       Factor:  0.8100
 Functional: VWN5                      Factor:  0.1900

  234265 words reserved for DFT integration

 PROGRAM * UKS-SCF (Unrestricted Kohn-Sham)     Authors: W. Meyer, H.-J. Werner, P.J. Knowles, 1993

 NUMBER OF ELECTRONS:      28+   27-    SPACE SYMMETRY=1    SPIN SYMMETRY: Doublet 
 CONVERGENCE THRESHOLDS:    1.00E-07 (Density)    1.00E-06 (Energy)
 INTEGRAL THRESHOLDS:       1.00E-11 (Initial)    1.00E-11 (Final)
 MAX. NUMBER OF ITERATIONS:       60
 INTERPOLATION TYPE:            DIIS
 INTERPOLATION STEPS:              2 (START)      1 (STEP)
 LEVEL SHIFTS:                 -0.20 (ALPHA)  -0.20 (BETA) 



 Use fine grid record 1800.2 for energy threshold  1.0D-06
 Molecular orbitals read from record     2205.2  Type=UKS/ALPHA (state 1.1)
 Molecular orbitals read from record     2205.2  Type=UKS/BETA (state 1.1)

 Molecular orbital dump at record        2206.2

 Initial alpha occupation  28
 Initial beta  occupation  27

 Direct Fock-matrix evaluation.        Author: H.-J. Werner (1996)

 Integral Threshold:                  0.1D-10

 ITERATION   DDIFF            GRAD            ENERGY        2-EL.EN.            DIPOLE MOMENTS         DIIS   CPU(IT)  CPU(TOT)
    1      0.000D+00      0.000D+00      -290.43723367    817.172428    0.36368   -0.10784    1.53535    0     11.0     11.0
    2      0.105D-02      0.388D-03      -290.44119475    817.524517    0.36563   -0.10886    1.54239    1     10.2     21.1
    3      0.205D-03      0.624D-04      -290.44138651    817.195608    0.36034   -0.10774    1.52153    2      9.8     31.0
    4      0.958D-04      0.297D-04      -290.44141678    817.222911    0.36377   -0.11021    1.53520    3      9.7     40.7
    5      0.465D-04      0.129D-04      -290.44142367    817.236980    0.36257   -0.10864    1.52828    4      9.7     50.4
    6      0.370D-04      0.450D-05      -290.44142532    817.216876    0.36292   -0.10871    1.52890    5      9.9     60.3
    7      0.149D-04      0.128D-05      -290.44142559    817.219963    0.36296   -0.10877    1.52882    6      9.5     69.8
    8      0.461D-05      0.542D-06      -290.44142563    817.218372    0.36300   -0.10868    1.52872    7      9.5     79.2
    9      0.188D-05      0.209D-06      -290.44142564    817.218476    0.36300   -0.10870    1.52871    7      9.3     88.6
   10      0.607D-06      0.874D-07      -290.44142564    817.218472    0.36301   -0.10870    1.52872    8      9.0     97.6
   11      0.246D-06      0.359D-07      -290.44142564    817.218489    0.36301   -0.10870    1.52872    8      8.3    106.0
   12      0.739D-07      0.147D-07      -290.44142564    817.218476    0.36301   -0.10870    1.52872    8      7.9    113.9
   13      0.293D-07      0.845D-08      -290.44142564    817.218475    0.36301   -0.10870    1.52872    8      7.5    121.3

 Final alpha occupancy:  28
 Final beta  occupancy:  27

 !UKS STATE  1.1 Energy              -290.441425642316
 Nuclear energy                       279.46474049
 One-electron energy                 -943.19119572
 Two-electron energy                  408.60923764
 Density functional                   -35.32420805     B88=-41.97420030 DIRAC=-37.73067510 LYP= -1.76532218 VWN5= -3.44430981
 Virial quotient                       -1.00481862
 !UKS STATE  1.1 Dipole moment          0.36300599    -0.10869944     1.52872193
 Dipole moment /Debye                   0.92260876    -0.27626832     3.88536909

 Orbital energies for positive spin:

         1.1          2.1          3.1          4.1          5.1          6.1          7.1          8.1          9.1         10.1
    -14.330473   -10.207267   -10.193321   -10.190670   -10.180925   -10.170957   -10.169895    -0.914526    -0.829201    -0.752776

        11.1         12.1         13.1         14.1         15.1         16.1         17.1         18.1         19.1         20.1
     -0.694466    -0.641031    -0.619377    -0.556862    -0.480510    -0.461758    -0.443753    -0.426193    -0.401102    -0.393286

        21.1         22.1         23.1         24.1         25.1         26.1         27.1         28.1         29.1         30.1
     -0.380215    -0.378999    -0.358465    -0.357361    -0.353771    -0.346594    -0.342733    -0.211963     0.002759     0.004015

 Orbital energies for negative spin:

         1.1          2.1          3.1          4.1          5.1          6.1          7.1          8.1          9.1         10.1
    -14.330490   -10.206433   -10.191350   -10.181668   -10.179843   -10.170577   -10.169677    -0.914097    -0.819672    -0.744655

        11.1         12.1         13.1         14.1         15.1         16.1         17.1         18.1         19.1         20.1
     -0.693472    -0.630947    -0.615681    -0.544562    -0.474265    -0.458482    -0.439214    -0.414825    -0.400439    -0.392001

        21.1         22.1         23.1         24.1         25.1         26.1         27.1         28.1         29.1         30.1
     -0.378834    -0.377075    -0.357589    -0.356954    -0.349377    -0.344188    -0.337551    -0.074874     0.003484     0.004724


 HOMO     28.1    -0.211963 =      -5.7678eV
 LUMO    -28.1    -0.074874 =      -2.0374eV
 LUMO-HOMO         0.137089 =       3.7304eV

 EXPECTATION VALUE OF S**2:             0.75411054

 Occupation number threshold for pseudo-canonical orbitals: 1.9990 (occupied), 0.0010 (virtual)

 Number of pseudo-canonical occupied orbitals per symmetry:   26
 Number of active natural orbitals per symmetry:               3

 Natural orbitals saved to record    2206.2 (Orbital set 3)

 Orbital spaces for UNO-CAS (Min. occupation: 0.020  Max. occupation: 1.980):

 Closed:       27
 Active:        1


 **********************************************************************************************************************************
 DATASETS  * FILE   NREC   LENGTH (MB)   RECORD NAMES
              1      19       33.38       500      610      700      900      950      970     1001      129      960     1100   
                                          VAR    BASINP    GEOM    SYMINP    ZMAT    AOBASIS   BASIS     P2S    ABASIS      S 
                                         1400     1410     1200     1210     1080     1600     1650     1700     1800   
                                           T        V       H0       H01     AOSYM     SMH    MOLCAS    OPER     GRID   

              2      14       38.50       700     1000      520     2100     1800     2200      520(1)  2201     2202     1001   
                                         GEOM     BASIS   MCVARS     RHF     GRID      UKS    MCVARS     UKS      UKS     BASIS   
                                         2203     2204     2205     2206   
                                          UKS      UKS      UKS      UKS  

 PROGRAMS   *        TOTAL   UKS-SCF   UKS-SCF    DF-UKS    DF-UKS       INT    DF-UKS      OPTG    DF-UKS      OPTG    DF-UKS
 CPU TIMES  *       643.01    121.40     81.62    119.93      4.87      0.24      2.49    239.89     22.84     43.33      2.84
 REAL TIME  *       649.32 SEC
 DISK USED  *        71.97 MB (local),      287.88 MB (total)
 SF USED    *        31.68 MB
 GA USED    *         3.27 MB       (max)       2.12 MB       (current)
 **********************************************************************************************************************************

 UB3LYP/TZVP//CF-UKS/SVP energy=   -290.441425642316

         UKS-SCF         UKS-SCF          DF-UKS          DF-UKS          DF-UKS    OPTG(DF-UKS)          DF-UKS    OPTG(DF-UKS)
   -290.44142564   -290.26538149   -290.26565071   -290.22595090   -289.90219922   -289.94936375   -289.94824979   -289.90323741
 **********************************************************************************************************************************
 Molpro calculation terminated
