
 Primary working directories    : /mnt/storage/home/lb17101/scratch/1379270/molpro.U6nNHGlDsv
 Secondary working directories  : /mnt/storage/home/lb17101/scratch/1379270/molpro.U6nNHGlDsv
 Wavefunction directory         : /mnt/storage/home/lb17101/optimizations/11/
 Main file repository           : /mnt/storage/home/lb17101/optimizations/11/

 id        : simonbennie

 Nodes                   nprocs
 compute073.bc4.acrc.priv    4

 Using customized tuning parameters: mindgm=1; mindgv=20; mindgc=4; mindgr=1; noblas=0; minvec=7
 default implementation of scratch files=sf  


 Variables initialized (924), CPU time= 0.01 sec
 memory,536,m
 
 geomtyp=xyz
 
 nosym
 noorient
 gdirect
 angstrom
 
 geometry=input.xyz
 Including file /mnt/storage/home/lb17101/optimizations/11/input.xyz
 
 set,charge=0
 
 basis=svp
 df-hf
 {cf-uks,pbe;}
 {optg,method=slrf,maxiter=50;
 constraint,2.000,angstrom,bond,atoms=[H11,C6]
 constraint,0.900,angstrom,bond,atoms=[H11,C17]
 constraint,180,deg,angle,atoms=[C6,H11,C17]
 {slopt;}}
 {cf-uks,pbe0;}
 {optg,method=slrf,maxiter=20;
 constraint,2.000,angstrom,bond,atoms=[H11,C6]
 constraint,0.900,angstrom,bond,atoms=[H11,C17]
 constraint,180,deg,angle,atoms=[C6,H11,C17]
 {slopt;}}
 {cf-uks,pbe;}
 basis=tzvp
 {cf-uks,pbe;}
 {cf-uks,pbe0;}
 {uks,pbe0;}
 {uks,b3lyp;}
 Commands  initialized (760), CPU time= 0.01 sec, 616 directives.
 Default parameters read. Elapsed time= 0.05 sec

 Checking input...
 Passed
1


                                         ***  PROGRAM SYSTEM MOLPRO  ***
                                       Copyright, TTI GmbH Stuttgart, 2015
                                    Version 2018.1 linked Oct 16 2018 14:32:03


 **********************************************************************************************************************************
 LABEL *                                                                                 
  64 bit mpp version                                                                     DATE: 09-Nov-18          TIME: 21:19:49  
 **********************************************************************************************************************************

 SHA1:             d673ad554fd0a1ae99daa449513f8b88cca0f763
 **********************************************************************************************************************************
 SETTING GEOMTYP        =    XYZ

 Variable memory set to  536000000 words,  buffer space 

 ZSYMEL=NOSYM
 ZUNIT=ANG

 SETTING CHARGE         =     0.00000000D+00                                  
 SETTING BASIS          =    SVP


 Recomputing integrals since basis changed


 Using spherical harmonics

 Library entry C      S def2-SVP             selected for orbital group  1
 Library entry C      P def2-SVP             selected for orbital group  1
 Library entry C      D def2-SVP             selected for orbital group  1
 Library entry H      S def2-SVP             selected for orbital group  2
 Library entry H      P def2-SVP             selected for orbital group  2
 Library entry N      S def2-SVP             selected for orbital group  8
 Library entry N      P def2-SVP             selected for orbital group  8
 Library entry N      D def2-SVP             selected for orbital group  8


 PROGRAM * SEWARD (Integral evaluation for generally contracted gaussian basis sets)     Author: Roland Lindh, 1990

 Geometry written to block  1 of record 700


 Point group  C1  



 ATOMIC COORDINATES

 NR  ATOM    CHARGE       X              Y              Z

   1  C0      6.00  -15.623034457    4.456181068   -0.744963817
   2  C1      6.00  -12.754161497    4.471148812   -0.270646497
   3  H2      1.00  -16.050724045    4.674077832   -2.791508804
   4  H3      1.00  -16.572723553    6.025924871    0.266890858
   5  H4      1.00  -16.494424527    2.659733771   -0.105170181
   6  C5      6.00  -11.570266300    7.002201743   -1.086802570
   7  C6      6.00  -11.492126434    2.196457185   -1.416610084
   8  H7      1.00  -12.474168993    4.333386856    1.830631913
   9  H8      1.00  -11.763135953    7.285372778   -3.155238719
  10  H9      1.00   -9.533873707    7.111716548   -0.612814725
  11  H10     1.00  -12.520738188    8.609141184   -0.135413196
  12  H11     1.00  -13.007317023    2.744903906   -6.851534638
  13  H12     1.00  -12.665161079    0.480079678   -1.598889749
  14  C13     6.00   -8.691617909    1.890885500   -1.553555080
  15  H14     1.00   -7.738367918    3.530069106   -2.457983525
  16  H15     1.00   -8.137223237    0.166611698   -2.602303197
  17  H16     1.00   -7.827415309    1.731359762    0.371967837
  18  C17     6.00  -13.531628172    3.097804943   -8.831810575
  19  N18     7.00  -14.089116397    3.480071945  -10.933086168

 Bond lengths in Bohr (Angstrom)

 1-2  2.907857117  1-3  2.102080819  1-4  2.095198050  1-5  2.096635267  2-6  2.911004554
     ( 1.538771719)     ( 1.112373265)     ( 1.108731061)     ( 1.109491603)     ( 1.540437271)

  2- 7  2.842566981   2- 8  2.124322271   6- 9  2.096619336   6-10  2.093693570   6-11  2.095421895
       ( 1.504221667)       ( 1.124142935)       ( 1.109483172)       ( 1.107934924)       ( 1.108849514)

  7-13  2.086908695   7-14  2.820456698  12-18  2.078685669  14-15  2.100856790  14-16  2.092927664
       ( 1.104344523)       ( 1.492521409)       ( 1.099993085)       ( 1.111725537)       ( 1.107529624)

 14-17  2.116585245  18-19  2.207324240
       ( 1.120048677)       ( 1.168065685)

 Bond angles

  1-2-6  111.09939358   1-2-7  111.60137794   1-2-8  106.92075244   2-1-3  111.03911382

  2- 1- 4  111.38057269   2- 1- 5  111.38769550   2- 6- 9  110.89278884   2- 6-10  112.18344479

  2- 6-11  110.79429451   2- 7-13  116.34663244   2- 7-14  123.16888649   3- 1- 4  107.47545775

  3-1-5  107.53847579   4-1-5  107.82953177   6-2-7  113.71478466   6-2-8  106.26673734

  7- 2- 8  106.75971964   7-14-15  112.76201543   7-14-16  112.12347607   7-14-17  111.67904931

  9- 6-10  107.80351523   9- 6-11  107.61546168  10- 6-11  107.35429488  12-18-19  179.79963244

 13- 7-14  117.69536096  15-14-16  107.87231350  15-14-17  105.37802152  16-14-17  106.59532687

 NUCLEAR CHARGE:                   55
 NUMBER OF PRIMITIVE AOS:         259
 NUMBER OF SYMMETRY AOS:          252
 NUMBER OF CONTRACTIONS:          158   (  158A   )
 NUMBER OF CORE ORBITALS:           7   (    7A   )
 NUMBER OF VALENCE ORBITALS:       40   (   40A   )


 NUCLEAR REPULSION ENERGY  266.36079263


 Eigenvalues of metric

         1 0.186E-02 0.367E-02 0.455E-02 0.556E-02 0.740E-02 0.190E-01 0.201E-01 0.227E-01


 OPERATOR DM      FOR CENTER  0  COORDINATES:    0.000000    0.000000    0.000000


 **********************************************************************************************************************************
 DATASETS  * FILE   NREC   LENGTH (MB)   RECORD NAMES
              1      18       31.21       500      610      700      900      950      970     1000      129      960     1100   
                                          VAR    BASINP    GEOM    SYMINP    ZMAT    AOBASIS   BASIS     P2S    ABASIS      S 
                                         1400     1410     1200     1210     1080     1600     1650     1700   
                                           T        V       H0       H01     AOSYM     SMH    MOLCAS    OPER   

 PROGRAMS   *        TOTAL       INT
 CPU TIMES  *         0.44      0.30
 REAL TIME  *         0.78 SEC
 DISK USED  *        31.83 MB (local),      127.32 MB (total)
 GA USED    *         0.00 MB       (max)       0.00 MB       (current)
 **********************************************************************************************************************************


 PROGRAM * RHF-SCF (OPEN SHELL)       Authors: W. Meyer, H.-J. Werner


 NUMBER OF ELECTRONS:      28+   27-    SPACE SYMMETRY=1    SPIN SYMMETRY: Doublet 
 CONVERGENCE THRESHOLDS:    1.00E-06 (Density)    1.00E-07 (Energy)
 INTEGRAL THRESHOLDS:       1.00E-11 (Initial)    1.00E-11 (Final)
 MAX. NUMBER OF ITERATIONS:       60
 INTERPOLATION TYPE:            DIIS
 INTERPOLATION STEPS:              2 (START)      1 (STEP)
 LEVEL SHIFTS:                 -0.60 (CLOSED) -0.30 (OPEN) 




 Basis set DEF2-SVP/JKFIT generated.     Number of basis functions:   560 

 Orbital guess generated from atomic densities. Full valence occupancy:   28
 Using density fitting in orbital guess

 Coulomb and exchange fitting
 Thresholds for fitting:       THRAO_COUL= 1.0D-14    THRAO_EXCH= 1.0D-12    THRMO= 1.0D-11    THRPROD= 1.0D-11    THRASM= 1.0D-11
                               THR2HLF=    1.0D-11

 Molecular orbital dump at record        2100.2

 Initial alpha occupancy:  28
 Initial beta  occupancy:  27
 Wave function symmetry:    1

 ITERATION   DDIFF            GRAD            ENERGY        2-EL.EN.            DIPOLE MOMENTS         DIIS   CPU(IT)  CPU(TOT)  ORB.
    1      0.000D+00      0.000D+00      -288.25515683    724.827716    0.67741   -0.23183    2.05219    0      0.2      0.5     start
    2      0.000D+00      0.406D-02      -288.33519995    721.922907    0.46565   -0.17005    1.54480    1      0.2      0.7     diag,B
    3      0.309D-02      0.158D-02      -288.35112100    722.030083    0.44885   -0.19605    1.57807    2      0.2      0.9     diag,B
    4      0.154D-02      0.759D-03      -288.35755801    721.990573    0.41407   -0.19475    1.51512    3      0.2      1.1     diag,B
    5      0.137D-02      0.213D-03      -288.35821314    721.956796    0.40924   -0.19627    1.50450    4      0.2      1.3     diag,B
    6      0.557D-03      0.747D-04      -288.35830788    721.929508    0.40777   -0.19595    1.49795    5      0.2      1.5     diag,B
    7      0.256D-03      0.223D-04      -288.35831674    721.921956    0.40736   -0.19545    1.49531    6      0.2      1.7     fixocc
    8      0.755D-04      0.734D-05      -288.35831791    721.921394    0.40711   -0.19509    1.49409    7      0.2      2.0     diag,B
    9      0.289D-04      0.264D-05      -288.35831809    721.921643    0.40702   -0.19494    1.49373    8      0.2      2.2     diag,B
   10      0.135D-04      0.845D-06      -288.35831811    721.921787    0.40701   -0.19490    1.49369    9      0.2      2.4     orth
   11      0.451D-05      0.308D-06      -288.35831812    721.921789    0.40701   -0.19489    1.49370    9      0.2      2.6     diag,B
   12      0.165D-05      0.106D-06      -288.35831812    721.921778    0.40701   -0.19489    1.49371    9      0.2      2.8     diag,B
   13      0.556D-06      0.365D-07      -288.35831812    721.921773    0.40701   -0.19489    1.49371    0      0.2      3.0     orth

 Final alpha occupancy:  28
 Final beta  occupancy:  27

 !RHF STATE  1.1 Energy              -288.358318116315
 Nuclear energy                       266.36079263
 One-electron energy                 -915.67999731
 Two-electron energy                  360.96088657
 Virial quotient                       -1.00689617
 !RHF STATE  1.1 Dipole moment          0.40700983    -0.19488966     1.49370591
 Dipole moment /Debye                   1.03444804    -0.49532765     3.79637307

 Orbital energies:

         1.1          2.1          3.1          4.1          5.1          6.1          7.1          8.1          9.1         10.1
    -15.598835   -11.299230   -11.247100   -11.242892   -11.238344   -11.236433   -11.235547    -1.211249    -1.086418    -0.990694

        11.1         12.1         13.1         14.1         15.1         16.1         17.1         18.1         19.1         20.1
     -0.926015    -0.848804    -0.786408    -0.740048    -0.636462    -0.618646    -0.596091    -0.571540    -0.562510    -0.548054

        21.1         22.1         23.1         24.1         25.1         26.1         27.1         28.1         29.1         30.1
     -0.539342    -0.524043    -0.487885    -0.486673    -0.485850    -0.480671    -0.474620    -0.357411     0.150175     0.166889


 HOMO     28.1    -0.357411 =      -9.7256eV
 LUMO     29.1     0.150175 =       4.0865eV
 LUMO-HOMO         0.507586 =      13.8121eV


 **********************************************************************************************************************************
 DATASETS  * FILE   NREC   LENGTH (MB)   RECORD NAMES
              1      18       31.21       500      610      700      900      950      970     1000      129      960     1100   
                                          VAR    BASINP    GEOM    SYMINP    ZMAT    AOBASIS   BASIS     P2S    ABASIS      S 
                                         1400     1410     1200     1210     1080     1600     1650     1700   
                                           T        V       H0       H01     AOSYM     SMH    MOLCAS    OPER   

              2       4        3.88       700     1000      520     2100   
                                         GEOM     BASIS   MCVARS     RHF  

 PROGRAMS   *        TOTAL     DF-HF       INT
 CPU TIMES  *         3.41      2.97      0.30
 REAL TIME  *         4.07 SEC
 DISK USED  *        38.78 MB (local),      155.11 MB (total)
 SF USED    *        28.84 MB
 GA USED    *         3.27 MB       (max)       0.00 MB       (current)
 **********************************************************************************************************************************

 Density functional group PBE=PBEX+PBEC
 Functional: PBEX(Automatically generated (new) PBEX)                          Gradient terms: 1
 Functional: PBEC(Automatically generated (new) PBEC)                          Gradient terms: 1
 Use libxcgrid:  F
 Use grid at  1800.2

 Functional: PBEX                      Factor:  1.0000
 Functional: PBEC                      Factor:  1.0000

 Generated new metagrid on record  1800.2 with target accuracy 1.0D-06 and 63368 points in CPU time    0.4
 Computed new grid on record 1800.1 in CPU time    0.5
  129907 words reserved for DFT integration

 PROGRAM * UKS-SCF (Unrestricted Kohn-Sham)     Authors: W. Meyer, H.-J. Werner, P.J. Knowles, 1993

 NUMBER OF ELECTRONS:      28+   27-    SPACE SYMMETRY=1    SPIN SYMMETRY: Doublet 
 CONVERGENCE THRESHOLDS:    1.00E-06 (Density)    1.00E-06 (Energy)
 INTEGRAL THRESHOLDS:       1.00E-11 (Initial)    1.00E-11 (Final)
 MAX. NUMBER OF ITERATIONS:       60
 INTERPOLATION TYPE:            DIIS
 INTERPOLATION STEPS:              2 (START)      1 (STEP)
 LEVEL SHIFTS:                 -0.20 (ALPHA)  -0.20 (BETA) 



 Use fine grid record 1800.2 for energy threshold  1.0D-06

 Basis set DEF2-SVP/JFIT generated.      Number of basis functions:   475 
 Coulomb fitting
 Screening thresholds:    THRAO_COUL= 1.0D-14    THRAO= 1.0D-12    THROV= 1.0D-12

 Reserved 1 MW to cache 100.0% of significant integrals (4 MW global). CPU: 0.1 sec

 Molecular orbitals read from record     2100.2  Type=RHF/CANONICAL (state 1.1)

 Molecular orbital dump at record        2200.2

 Initial alpha occupation  28
 Initial beta  occupation  27

 ITERATION    DDIFF          GRAD             ENERGY        2-EL.EN.            DIPOLE MOMENTS         DIIS  CPU(IT) CPU(TOT)
    1      0.000D+00      0.000D+00      -289.86338031    805.399339    0.40701   -0.19489    1.49371    0      0.2      0.3
    2      0.410D-02      0.216D-02      -289.90464828    808.460075    0.39267   -0.15660    1.39652    1      0.2      0.5
    3      0.138D-02      0.440D-03      -289.90832009    807.092031    0.39515   -0.15013    1.37627    2      0.2      0.6
    4      0.736D-03      0.193D-03      -289.90928625    807.607657    0.39620   -0.14593    1.35977    3      0.2      0.8
    5      0.317D-03      0.799D-04      -289.90941664    807.540764    0.41065   -0.15123    1.40292    4      0.2      1.0
    6      0.139D-03      0.852D-04      -289.90951198    807.475276    0.40415   -0.14524    1.37617    5      0.2      1.1
    7      0.877D-04      0.210D-04      -289.90952764    807.487587    0.40677   -0.14716    1.38437    6      0.2      1.3
    8      0.322D-04      0.767D-05      -289.90952980    807.489113    0.40708   -0.14633    1.38485    7      0.2      1.5
    9      0.137D-04      0.280D-05      -289.90953007    807.489415    0.40728   -0.14652    1.38516    8      0.2      1.6
   10      0.587D-05      0.126D-05      -289.90953012    807.488575    0.40728   -0.14649    1.38546    8      0.2      1.8
   11      0.209D-05      0.288D-06      -289.90953013    807.488592    0.40730   -0.14650    1.38548    8      0.2      2.0
   12      0.548D-06      0.101D-06      -289.90953013    807.488657    0.40729   -0.14651    1.38548    8      0.2      2.1
   13      0.246D-06      0.576D-07      -289.90953013    807.488604    0.40729   -0.14650    1.38548    7      0.2      2.3

 Final alpha occupancy:  28
 Final beta  occupancy:  27

 !UKS STATE  1.1 Energy              -289.909530127508
 Nuclear energy                       266.36079263
 One-electron energy                 -916.74881357
 Two-electron energy                  403.74430205
 Density functional                   -43.26581123     PBEX=-41.50719124 PBEC= -1.75861999
 Virial quotient                       -1.01213296
 !UKS STATE  1.1 Dipole moment          0.40729348    -0.14650224     1.38548143
 Dipole moment /Debye                   1.03516897    -0.37234717     3.52131190

 Orbital energies for positive spin:

         1.1          2.1          3.1          4.1          5.1          6.1          7.1          8.1          9.1         10.1
    -14.008857    -9.945506    -9.916599    -9.916383    -9.906908    -9.899206    -9.898927    -0.818171    -0.739444    -0.668274

        11.1         12.1         13.1         14.1         15.1         16.1         17.1         18.1         19.1         20.1
     -0.615751    -0.564916    -0.528204    -0.490481    -0.422246    -0.407436    -0.390805    -0.370654    -0.349641    -0.341960

        21.1         22.1         23.1         24.1         25.1         26.1         27.1         28.1         29.1         30.1
     -0.329817    -0.316695    -0.315015    -0.314832    -0.306718    -0.300985    -0.295007    -0.166837    -0.022049    -0.019550

 Orbital energies for negative spin:

         1.1          2.1          3.1          4.1          5.1          6.1          7.1          8.1          9.1         10.1
    -14.008855    -9.945347    -9.917068    -9.907631    -9.903915    -9.898794    -9.898759    -0.818097    -0.731702    -0.661270

        11.1         12.1         13.1         14.1         15.1         16.1         17.1         18.1         19.1         20.1
     -0.614885    -0.556877    -0.527454    -0.480492    -0.416740    -0.404752    -0.386556    -0.362132    -0.348957    -0.340894

        21.1         22.1         23.1         24.1         25.1         26.1         27.1         28.1         29.1         30.1
     -0.326922    -0.316607    -0.314891    -0.314738    -0.303315    -0.298871    -0.290429    -0.095617    -0.021851    -0.019360


 HOMO     28.1    -0.166837 =      -4.5399eV
 LUMO    -28.1    -0.095617 =      -2.6019eV
 LUMO-HOMO         0.071221 =       1.9380eV

 EXPECTATION VALUE OF S**2:             0.75333059

 Occupation number threshold for pseudo-canonical orbitals: 1.9990 (occupied), 0.0010 (virtual)

 Number of pseudo-canonical occupied orbitals per symmetry:   27
 Number of active natural orbitals per symmetry:               1

 Natural orbitals saved to record    2200.2 (Orbital set 3)

 Orbital spaces for UNO-CAS (Min. occupation: 0.020  Max. occupation: 1.980):

 Closed:       27
 Active:        1


 **********************************************************************************************************************************
 DATASETS  * FILE   NREC   LENGTH (MB)   RECORD NAMES
              1      19       31.21       500      610      700      900      950      970     1000      129      960     1100   
                                          VAR    BASINP    GEOM    SYMINP    ZMAT    AOBASIS   BASIS     P2S    ABASIS      S 
                                         1400     1410     1200     1210     1080     1600     1650     1700     1800   
                                           T        V       H0       H01     AOSYM     SMH    MOLCAS    OPER     GRID   

              2       6        7.61       700     1000      520     2100     1800     2200   
                                         GEOM     BASIS   MCVARS     RHF     GRID      UKS  

 PROGRAMS   *        TOTAL    DF-UKS     DF-HF       INT
 CPU TIMES  *         6.30      2.89      2.97      0.30
 REAL TIME  *         7.24 SEC
 DISK USED  *        38.89 MB (local),      155.54 MB (total)
 SF USED    *        28.84 MB
 GA USED    *         3.27 MB       (max)       2.09 MB       (current)
 **********************************************************************************************************************************


 PROGRAM * OPT (Geometry optimization)     Authors: F. Eckert and H.-J. Werner


 BFGS update of hessian


********** USER DEFINED INT/FIX/CONSTRAINTS ****************

List of primitive internal coordinates

     N      Name     Type   Natoms   Atom list

     1    Bo0001     Bond        2      H11  C6  
     2    Bo0002     Bond        2      H11  C17 
     3    An0001     Angle       3      C6   H11  C17 

List of user defined internal/fixed coordinates and constraints

- - - - - - - - - - - - - - - - - - - - - - - - - - - - - - - - - 
    N      Name   Type      Pname     Coeff       Value   Unit
- - - - - - - - - - - - - - - - - - - - - - - - - - - - - - - - - 
    1    Cns001    Con     Bo0001     1.000     2.00000 Angstrom
- - - - - - - - - - - - - - - - - - - - - - - - - - - - - - - - - 
    2    Cns002    Con     Bo0002     1.000     0.90000 Angstrom
- - - - - - - - - - - - - - - - - - - - - - - - - - - - - - - - - 
    3    Cns003    Con     An0001     1.000   180.00000   Degree
- - - - - - - - - - - - - - - - - - - - - - - - - - - - - - - - - 


******************************************************************



 *** Long output written to logfile /mnt/storage/home/lb17101/optimizations/11/11_2.00_0.90.log ***


 Geometry optimization using default procedure for command CF-UKS-SCF

 Geometry written to block  1 of record 700

 SLAPAF optimizer by R. Lindh and Ignacio F. Galvan entered

 Constraints section
ConstraintsConstraintsConstraintsConstraintsConstraintsConstraintsConstraintsConstraintsConstraintsConstraints
ConstraintsConstraintsConstraintsConstraintsConstraintsConstraintsConstraintsConstraintsConstraintsConstraints
Constraints                                                                                        Constraints
Constraints                                 C O N S T R A I N T S                                  Constraints
Constraints                                                                                        Constraints

************************************************************************************************************************
BO0001 = BOND       H11   C6
BO0002 = BOND       H11   C17
AN0001 = ANGLE      C6    H11   C17
VALUES
BO0001 =      2.00000000 ANGSTROM
BO0002 =      0.90000000 ANGSTROM
AN0001 =    180.00000000 DEGREE
************************************************************************************************************************


 *************************************************************
 * Values of the primitive constraints                       *
 *************************************************************
 BO0001   : Bond Length=  2.999786 / Angstrom  5.668774 / bohr
 BO0002   : Bond Length=  1.099993 / Angstrom  2.078686 / bohr
 AN0001   : Angle=      175.7129   / Degree    3.066769 / rad

 *******************************************
 * Values of the constraints   / au or rad *
 *******************************************
   Label        C         C0
 Cns001      5.668774  3.779452
 Cns002      2.078686  1.700754
 Cns003      3.066769  3.141593


 ITER.   ENERGY(OLD)    ENERGY(NEW)      DE          GRADMAX     GRADNORM    GRADRMS     STEPMAX     STEPLEN     STEPRMS   CPU-time
   1  -289.90953013  -289.90823350     0.00129663  0.00531371  0.00802366  0.00106276  0.38172772  0.98200757  0.01722820      3.60

 Constraints section
ConstraintsConstraintsConstraintsConstraintsConstraintsConstraintsConstraintsConstraintsConstraintsConstraints
ConstraintsConstraintsConstraintsConstraintsConstraintsConstraintsConstraintsConstraintsConstraintsConstraints
Constraints                                                                                        Constraints
Constraints                                 C O N S T R A I N T S                                  Constraints
Constraints                                                                                        Constraints

************************************************************************************************************************
BO0001 = BOND       H11   C6
BO0002 = BOND       H11   C17
AN0001 = ANGLE      C6    H11   C17
VALUES
BO0001 =      2.00000000 ANGSTROM
BO0002 =      0.90000000 ANGSTROM
AN0001 =    180.00000000 DEGREE
************************************************************************************************************************


 *************************************************************
 * Values of the primitive constraints                       *
 *************************************************************
 BO0001   : Bond Length=  2.928907 / Angstrom  5.534833 / bohr
 BO0002   : Bond Length=  1.085838 / Angstrom  2.051937 / bohr
 AN0001   : Angle=      176.0029   / Degree    3.071829 / rad

 *******************************************
 * Values of the constraints   / au or rad *
 *******************************************
   Label        C         C0
 Cns001      5.534833  3.779452
 Cns002      2.051937  1.700754
 Cns003      3.071829  3.141593

   2  -289.90823350  -289.90546353     0.00276997  0.01503099  0.02815127  0.00372873  0.50141428  1.21052086  0.02123721      6.97

 Constraints section
ConstraintsConstraintsConstraintsConstraintsConstraintsConstraintsConstraintsConstraintsConstraintsConstraints
ConstraintsConstraintsConstraintsConstraintsConstraintsConstraintsConstraintsConstraintsConstraintsConstraints
Constraints                                                                                        Constraints
Constraints                                 C O N S T R A I N T S                                  Constraints
Constraints                                                                                        Constraints

************************************************************************************************************************
BO0001 = BOND       H11   C6
BO0002 = BOND       H11   C17
AN0001 = ANGLE      C6    H11   C17
VALUES
BO0001 =      2.00000000 ANGSTROM
BO0002 =      0.90000000 ANGSTROM
AN0001 =    180.00000000 DEGREE
************************************************************************************************************************


 *************************************************************
 * Values of the primitive constraints                       *
 *************************************************************
 BO0001   : Bond Length=  2.616666 / Angstrom  4.944783 / bohr
 BO0002   : Bond Length=  1.023452 / Angstrom  1.934043 / bohr
 AN0001   : Angle=      177.1018   / Degree    3.091010 / rad

 *******************************************
 * Values of the constraints   / au or rad *
 *******************************************
   Label        C         C0
 Cns001      4.944783  3.779452
 Cns002      1.934043  1.700754
 Cns003      3.091010  3.141593

   3  -289.90546353  -289.89909845     0.00636508  0.06061334  0.09092042  0.01204270  0.38038249  0.75814985  0.01330087     10.62

 Constraints section
ConstraintsConstraintsConstraintsConstraintsConstraintsConstraintsConstraintsConstraintsConstraintsConstraints
ConstraintsConstraintsConstraintsConstraintsConstraintsConstraintsConstraintsConstraintsConstraintsConstraints
Constraints                                                                                        Constraints
Constraints                                 C O N S T R A I N T S                                  Constraints
Constraints                                                                                        Constraints

************************************************************************************************************************
BO0001 = BOND       H11   C6
BO0002 = BOND       H11   C17
AN0001 = ANGLE      C6    H11   C17
VALUES
BO0001 =      2.00000000 ANGSTROM
BO0002 =      0.90000000 ANGSTROM
AN0001 =    180.00000000 DEGREE
************************************************************************************************************************


 *************************************************************
 * Values of the primitive constraints                       *
 *************************************************************
 BO0001   : Bond Length=  2.397442 / Angstrom  4.530509 / bohr
 BO0002   : Bond Length=  0.979565 / Angstrom  1.851109 / bohr
  Valence angle close to end in range of definition
 AN0001   : Angle=      178.1241   / Degree    3.108852 / rad

 *******************************************
 * Values of the constraints   / au or rad *
 *******************************************
   Label        C         C0
 Cns001      4.530509  3.779452
 Cns002      1.851109  1.700754
 Cns003      3.108852  3.141593

   4  -289.89909845  -289.89521178     0.00388667  0.10875971  0.15990123  0.02117944  0.15068756  0.40918127  0.00717862     13.97

 Constraints section
ConstraintsConstraintsConstraintsConstraintsConstraintsConstraintsConstraintsConstraintsConstraintsConstraints
ConstraintsConstraintsConstraintsConstraintsConstraintsConstraintsConstraintsConstraintsConstraintsConstraints
Constraints                                                                                        Constraints
Constraints                                 C O N S T R A I N T S                                  Constraints
Constraints                                                                                        Constraints

************************************************************************************************************************
BO0001 = BOND       H11   C6
BO0002 = BOND       H11   C17
AN0001 = ANGLE      C6    H11   C17
VALUES
BO0001 =      2.00000000 ANGSTROM
BO0002 =      0.90000000 ANGSTROM
AN0001 =    180.00000000 DEGREE
************************************************************************************************************************


 *************************************************************
 * Values of the primitive constraints                       *
 *************************************************************
 BO0001   : Bond Length=  2.319682 / Angstrom  4.383564 / bohr
 BO0002   : Bond Length=  0.963998 / Angstrom  1.821692 / bohr
  Valence angle close to end in range of definition
 AN0001   : Angle=      178.4789   / Degree    3.115044 / rad

 *******************************************
 * Values of the constraints   / au or rad *
 *******************************************
   Label        C         C0
 Cns001      4.383564  3.779452
 Cns002      1.821692  1.700754
 Cns003      3.115044  3.141593

   5  -289.89521178  -289.88763869     0.00757309  0.12890560  0.18928331  0.02507119  0.20917079  0.44455449  0.00779920     17.42

 Constraints section
ConstraintsConstraintsConstraintsConstraintsConstraintsConstraintsConstraintsConstraintsConstraintsConstraints
ConstraintsConstraintsConstraintsConstraintsConstraintsConstraintsConstraintsConstraintsConstraintsConstraints
Constraints                                                                                        Constraints
Constraints                                 C O N S T R A I N T S                                  Constraints
Constraints                                                                                        Constraints

************************************************************************************************************************
BO0001 = BOND       H11   C6
BO0002 = BOND       H11   C17
AN0001 = ANGLE      C6    H11   C17
VALUES
BO0001 =      2.00000000 ANGSTROM
BO0002 =      0.90000000 ANGSTROM
AN0001 =    180.00000000 DEGREE
************************************************************************************************************************


 *************************************************************
 * Values of the primitive constraints                       *
 *************************************************************
 BO0001   : Bond Length=  2.205632 / Angstrom  4.168041 / bohr
 BO0002   : Bond Length=  0.941166 / Angstrom  1.778546 / bohr
  Valence angle close to end in range of definition
 AN0001   : Angle=      178.9105   / Degree    3.122578 / rad

 *******************************************
 * Values of the constraints   / au or rad *
 *******************************************
   Label        C         C0
 Cns001      4.168041  3.779452
 Cns002      1.778546  1.700754
 Cns003      3.122578  3.141593

   6  -289.88763869  -289.88095348     0.00668521  0.16693948  0.24144999  0.03198083  0.17063144  0.48729907  0.00854911     20.88

 Constraints section
ConstraintsConstraintsConstraintsConstraintsConstraintsConstraintsConstraintsConstraintsConstraintsConstraints
ConstraintsConstraintsConstraintsConstraintsConstraintsConstraintsConstraintsConstraintsConstraintsConstraints
Constraints                                                                                        Constraints
Constraints                                 C O N S T R A I N T S                                  Constraints
Constraints                                                                                        Constraints

************************************************************************************************************************
BO0001 = BOND       H11   C6
BO0002 = BOND       H11   C17
AN0001 = ANGLE      C6    H11   C17
VALUES
BO0001 =      2.00000000 ANGSTROM
BO0002 =      0.90000000 ANGSTROM
AN0001 =    180.00000000 DEGREE
************************************************************************************************************************


 *************************************************************
 * Values of the primitive constraints                       *
 *************************************************************
 BO0001   : Bond Length=  2.127892 / Angstrom  4.021133 / bohr
 BO0002   : Bond Length=  0.925603 / Angstrom  1.749136 / bohr
  Valence angle close to end in range of definition
 AN0001   : Angle=      179.3089   / Degree    3.129531 / rad

 *******************************************
 * Values of the constraints   / au or rad *
 *******************************************
   Label        C         C0
 Cns001      4.021133  3.779452
 Cns002      1.749136  1.700754
 Cns003      3.129531  3.141593

   7  -289.88095348  -289.87189572     0.00905776  0.19337979  0.27897033  0.03695052  0.24292874  0.63472924  0.01113560     24.44

 Constraints section
ConstraintsConstraintsConstraintsConstraintsConstraintsConstraintsConstraintsConstraintsConstraintsConstraints
ConstraintsConstraintsConstraintsConstraintsConstraintsConstraintsConstraintsConstraintsConstraintsConstraints
Constraints                                                                                        Constraints
Constraints                                 C O N S T R A I N T S                                  Constraints
Constraints                                                                                        Constraints

************************************************************************************************************************
BO0001 = BOND       H11   C6
BO0002 = BOND       H11   C17
AN0001 = ANGLE      C6    H11   C17
VALUES
BO0001 =      2.00000000 ANGSTROM
BO0002 =      0.90000000 ANGSTROM
AN0001 =    180.00000000 DEGREE
************************************************************************************************************************


 *************************************************************
 * Values of the primitive constraints                       *
 *************************************************************
 BO0001   : Bond Length=  2.038846 / Angstrom  3.852861 / bohr
 BO0002   : Bond Length=  0.907777 / Angstrom  1.715449 / bohr
  Valence angle close to end in range of definition
 AN0001   : Angle=      179.7317   / Degree    3.136910 / rad

 *******************************************
 * Values of the constraints   / au or rad *
 *******************************************
   Label        C         C0
 Cns001      3.852861  3.779452
 Cns002      1.715449  1.700754
 Cns003      3.136910  3.141593

   8  -289.87189572  -289.86809034     0.00380539  0.22713686  0.32623193  0.04321048  0.12121179  0.26266195  0.00460810     27.88

 Constraints section
ConstraintsConstraintsConstraintsConstraintsConstraintsConstraintsConstraintsConstraintsConstraintsConstraints
ConstraintsConstraintsConstraintsConstraintsConstraintsConstraintsConstraintsConstraintsConstraintsConstraints
Constraints                                                                                        Constraints
Constraints                                 C O N S T R A I N T S                                  Constraints
Constraints                                                                                        Constraints

************************************************************************************************************************
BO0001 = BOND       H11   C6
BO0002 = BOND       H11   C17
AN0001 = ANGLE      C6    H11   C17
VALUES
BO0001 =      2.00000000 ANGSTROM
BO0002 =      0.90000000 ANGSTROM
AN0001 =    180.00000000 DEGREE
************************************************************************************************************************


 *************************************************************
 * Values of the primitive constraints                       *
 *************************************************************
 BO0001   : Bond Length=  2.000000 / Angstrom  3.779452 / bohr
 BO0002   : Bond Length=  0.900000 / Angstrom  1.700754 / bohr
  Valence angle close to end in range of definition
 AN0001   : Angle=      179.5305   / Degree    3.133398 / rad

 *******************************************
 * Values of the constraints   / au or rad *
 *******************************************
   Label        C         C0
 Cns001      3.779452  3.779452
 Cns002      1.700754  1.700754
 Cns003      3.133398  3.141593

   9  -289.86809034  -289.86880181    -0.00071147  0.24267083  0.34783517  0.04607189  0.17604709  0.37114722  0.00651135     31.74

 Constraints section
ConstraintsConstraintsConstraintsConstraintsConstraintsConstraintsConstraintsConstraintsConstraintsConstraints
ConstraintsConstraintsConstraintsConstraintsConstraintsConstraintsConstraintsConstraintsConstraintsConstraints
Constraints                                                                                        Constraints
Constraints                                 C O N S T R A I N T S                                  Constraints
Constraints                                                                                        Constraints

************************************************************************************************************************
BO0001 = BOND       H11   C6
BO0002 = BOND       H11   C17
AN0001 = ANGLE      C6    H11   C17
VALUES
BO0001 =      2.00000000 ANGSTROM
BO0002 =      0.90000000 ANGSTROM
AN0001 =    180.00000000 DEGREE
************************************************************************************************************************


 *************************************************************
 * Values of the primitive constraints                       *
 *************************************************************
 BO0001   : Bond Length=  2.000000 / Angstrom  3.779452 / bohr
 BO0002   : Bond Length=  0.900000 / Angstrom  1.700754 / bohr
  Valence angle close to end in range of definition
 AN0001   : Angle=      179.7894   / Degree    3.137917 / rad

 *******************************************
 * Values of the constraints   / au or rad *
 *******************************************
   Label        C         C0
 Cns001      3.779452  3.779452
 Cns002      1.700754  1.700754
 Cns003      3.137917  3.141593

  10  -289.86880181  -289.86901696    -0.00021515  0.24205851  0.34706909  0.04597042  0.09144391  0.23880157  0.00418950     35.62

 Constraints section
ConstraintsConstraintsConstraintsConstraintsConstraintsConstraintsConstraintsConstraintsConstraintsConstraints
ConstraintsConstraintsConstraintsConstraintsConstraintsConstraintsConstraintsConstraintsConstraintsConstraints
Constraints                                                                                        Constraints
Constraints                                 C O N S T R A I N T S                                  Constraints
Constraints                                                                                        Constraints

************************************************************************************************************************
BO0001 = BOND       H11   C6
BO0002 = BOND       H11   C17
AN0001 = ANGLE      C6    H11   C17
VALUES
BO0001 =      2.00000000 ANGSTROM
BO0002 =      0.90000000 ANGSTROM
AN0001 =    180.00000000 DEGREE
************************************************************************************************************************


 *************************************************************
 * Values of the primitive constraints                       *
 *************************************************************
 BO0001   : Bond Length=  2.000000 / Angstrom  3.779452 / bohr
 BO0002   : Bond Length=  0.900000 / Angstrom  1.700754 / bohr
  Valence angle close to end in range of definition
 AN0001   : Angle=      179.9362   / Degree    3.140478 / rad

 *******************************************
 * Values of the constraints   / au or rad *
 *******************************************
   Label        C         C0
 Cns001      3.779452  3.779452
 Cns002      1.700754  1.700754
 Cns003      3.140478  3.141593

  11  -289.86901696  -289.86923489    -0.00021794  0.24213832  0.34692441  0.04595126  0.12280124  0.26502121  0.00464949     39.24

 Constraints section
ConstraintsConstraintsConstraintsConstraintsConstraintsConstraintsConstraintsConstraintsConstraintsConstraints
ConstraintsConstraintsConstraintsConstraintsConstraintsConstraintsConstraintsConstraintsConstraintsConstraints
Constraints                                                                                        Constraints
Constraints                                 C O N S T R A I N T S                                  Constraints
Constraints                                                                                        Constraints

************************************************************************************************************************
BO0001 = BOND       H11   C6
BO0002 = BOND       H11   C17
AN0001 = ANGLE      C6    H11   C17
VALUES
BO0001 =      2.00000000 ANGSTROM
BO0002 =      0.90000000 ANGSTROM
AN0001 =    180.00000000 DEGREE
************************************************************************************************************************


 *************************************************************
 * Values of the primitive constraints                       *
 *************************************************************
 BO0001   : Bond Length=  2.000000 / Angstrom  3.779452 / bohr
 BO0002   : Bond Length=  0.900000 / Angstrom  1.700754 / bohr
  Valence angle close to end in range of definition
 AN0001   : Angle=      179.5069   / Degree    3.132987 / rad

 *******************************************
 * Values of the constraints   / au or rad *
 *******************************************
   Label        C         C0
 Cns001      3.779452  3.779452
 Cns002      1.700754  1.700754
 Cns003      3.132987  3.141593

  12  -289.86923489  -289.86928422    -0.00004932  0.24241997  0.34692020  0.04595070  0.07127785  0.14868212  0.00260846     42.75

 Constraints section
ConstraintsConstraintsConstraintsConstraintsConstraintsConstraintsConstraintsConstraintsConstraintsConstraints
ConstraintsConstraintsConstraintsConstraintsConstraintsConstraintsConstraintsConstraintsConstraintsConstraints
Constraints                                                                                        Constraints
Constraints                                 C O N S T R A I N T S                                  Constraints
Constraints                                                                                        Constraints

************************************************************************************************************************
BO0001 = BOND       H11   C6
BO0002 = BOND       H11   C17
AN0001 = ANGLE      C6    H11   C17
VALUES
BO0001 =      2.00000000 ANGSTROM
BO0002 =      0.90000000 ANGSTROM
AN0001 =    180.00000000 DEGREE
************************************************************************************************************************


 *************************************************************
 * Values of the primitive constraints                       *
 *************************************************************
 BO0001   : Bond Length=  2.000000 / Angstrom  3.779452 / bohr
 BO0002   : Bond Length=  0.900000 / Angstrom  1.700754 / bohr
  Valence angle close to end in range of definition
 AN0001   : Angle=      179.9156   / Degree    3.140120 / rad

 *******************************************
 * Values of the constraints   / au or rad *
 *******************************************
   Label        C         C0
 Cns001      3.779452  3.779452
 Cns002      1.700754  1.700754
 Cns003      3.140120  3.141593

  13  -289.86928422  -289.86938561    -0.00010140  0.24282283  0.34700147  0.04596147  0.07686325  0.16472073  0.00288984     46.20

 Constraints section
ConstraintsConstraintsConstraintsConstraintsConstraintsConstraintsConstraintsConstraintsConstraintsConstraints
ConstraintsConstraintsConstraintsConstraintsConstraintsConstraintsConstraintsConstraintsConstraintsConstraints
Constraints                                                                                        Constraints
Constraints                                 C O N S T R A I N T S                                  Constraints
Constraints                                                                                        Constraints

************************************************************************************************************************
BO0001 = BOND       H11   C6
BO0002 = BOND       H11   C17
AN0001 = ANGLE      C6    H11   C17
VALUES
BO0001 =      2.00000000 ANGSTROM
BO0002 =      0.90000000 ANGSTROM
AN0001 =    180.00000000 DEGREE
************************************************************************************************************************


 *************************************************************
 * Values of the primitive constraints                       *
 *************************************************************
 BO0001   : Bond Length=  2.000000 / Angstrom  3.779452 / bohr
 BO0002   : Bond Length=  0.900000 / Angstrom  1.700754 / bohr
  Valence angle close to end in range of definition
 AN0001   : Angle=      179.8369   / Degree    3.138746 / rad

 *******************************************
 * Values of the constraints   / au or rad *
 *******************************************
   Label        C         C0
 Cns001      3.779452  3.779452
 Cns002      1.700754  1.700754
 Cns003      3.138746  3.141593

  14  -289.86938561  -289.86943376    -0.00004815  0.24288867  0.34693199  0.04595226  0.04004608  0.12709638  0.00222976     49.82

 Constraints section
ConstraintsConstraintsConstraintsConstraintsConstraintsConstraintsConstraintsConstraintsConstraintsConstraints
ConstraintsConstraintsConstraintsConstraintsConstraintsConstraintsConstraintsConstraintsConstraintsConstraints
Constraints                                                                                        Constraints
Constraints                                 C O N S T R A I N T S                                  Constraints
Constraints                                                                                        Constraints

************************************************************************************************************************
BO0001 = BOND       H11   C6
BO0002 = BOND       H11   C17
AN0001 = ANGLE      C6    H11   C17
VALUES
BO0001 =      2.00000000 ANGSTROM
BO0002 =      0.90000000 ANGSTROM
AN0001 =    180.00000000 DEGREE
************************************************************************************************************************


 *************************************************************
 * Values of the primitive constraints                       *
 *************************************************************
 BO0001   : Bond Length=  2.000000 / Angstrom  3.779452 / bohr
 BO0002   : Bond Length=  0.900000 / Angstrom  1.700754 / bohr
  Valence angle close to end in range of definition
 AN0001   : Angle=      179.0005   / Degree    3.124147 / rad

 *******************************************
 * Values of the constraints   / au or rad *
 *******************************************
   Label        C         C0
 Cns001      3.779452  3.779452
 Cns002      1.700754  1.700754
 Cns003      3.124147  3.141593

  15  -289.86943376  -289.86946759    -0.00003382  0.24290927  0.34690929  0.04594926  0.04073284  0.08819639  0.00154731     53.36

 Constraints section
ConstraintsConstraintsConstraintsConstraintsConstraintsConstraintsConstraintsConstraintsConstraintsConstraints
ConstraintsConstraintsConstraintsConstraintsConstraintsConstraintsConstraintsConstraintsConstraintsConstraints
Constraints                                                                                        Constraints
Constraints                                 C O N S T R A I N T S                                  Constraints
Constraints                                                                                        Constraints

************************************************************************************************************************
BO0001 = BOND       H11   C6
BO0002 = BOND       H11   C17
AN0001 = ANGLE      C6    H11   C17
VALUES
BO0001 =      2.00000000 ANGSTROM
BO0002 =      0.90000000 ANGSTROM
AN0001 =    180.00000000 DEGREE
************************************************************************************************************************


 *************************************************************
 * Values of the primitive constraints                       *
 *************************************************************
 BO0001   : Bond Length=  2.000000 / Angstrom  3.779452 / bohr
 BO0002   : Bond Length=  0.900000 / Angstrom  1.700754 / bohr
  Valence angle close to end in range of definition
 AN0001   : Angle=      179.8102   / Degree    3.138281 / rad

 *******************************************
 * Values of the constraints   / au or rad *
 *******************************************
   Label        C         C0
 Cns001      3.779452  3.779452
 Cns002      1.700754  1.700754
 Cns003      3.138281  3.141593

  16  -289.86946759  -289.86949403    -0.00002644  0.24312793  0.34694795  0.04595438  0.02683200  0.07092595  0.00124431     56.94

 Constraints section
ConstraintsConstraintsConstraintsConstraintsConstraintsConstraintsConstraintsConstraintsConstraintsConstraints
ConstraintsConstraintsConstraintsConstraintsConstraintsConstraintsConstraintsConstraintsConstraintsConstraints
Constraints                                                                                        Constraints
Constraints                                 C O N S T R A I N T S                                  Constraints
Constraints                                                                                        Constraints

************************************************************************************************************************
BO0001 = BOND       H11   C6
BO0002 = BOND       H11   C17
AN0001 = ANGLE      C6    H11   C17
VALUES
BO0001 =      2.00000000 ANGSTROM
BO0002 =      0.90000000 ANGSTROM
AN0001 =    180.00000000 DEGREE
************************************************************************************************************************


 *************************************************************
 * Values of the primitive constraints                       *
 *************************************************************
 BO0001   : Bond Length=  2.000000 / Angstrom  3.779452 / bohr
 BO0002   : Bond Length=  0.900000 / Angstrom  1.700754 / bohr
  Valence angle close to end in range of definition
 AN0001   : Angle=      179.9972   / Degree    3.141543 / rad

 *******************************************
 * Values of the constraints   / au or rad *
 *******************************************
   Label        C         C0
 Cns001      3.779452  3.779452
 Cns002      1.700754  1.700754
 Cns003      3.141543  3.141593

  17  -289.86949403  -289.86949978    -0.00000575  0.24328240  0.34702590  0.04596470  0.01051865  0.02746573  0.00048185     60.10

 Constraints section
ConstraintsConstraintsConstraintsConstraintsConstraintsConstraintsConstraintsConstraintsConstraintsConstraints
ConstraintsConstraintsConstraintsConstraintsConstraintsConstraintsConstraintsConstraintsConstraintsConstraints
Constraints                                                                                        Constraints
Constraints                                 C O N S T R A I N T S                                  Constraints
Constraints                                                                                        Constraints

************************************************************************************************************************
BO0001 = BOND       H11   C6
BO0002 = BOND       H11   C17
AN0001 = ANGLE      C6    H11   C17
VALUES
BO0001 =      2.00000000 ANGSTROM
BO0002 =      0.90000000 ANGSTROM
AN0001 =    180.00000000 DEGREE
************************************************************************************************************************


 *************************************************************
 * Values of the primitive constraints                       *
 *************************************************************
 BO0001   : Bond Length=  2.000000 / Angstrom  3.779452 / bohr
 BO0002   : Bond Length=  0.900000 / Angstrom  1.700754 / bohr
  Valence angle close to end in range of definition
 AN0001   : Angle=      179.9627   / Degree    3.140942 / rad

 *******************************************
 * Values of the constraints   / au or rad *
 *******************************************
   Label        C         C0
 Cns001      3.779452  3.779452
 Cns002      1.700754  1.700754
 Cns003      3.140942  3.141593

  18  -289.86949978  -289.86952084    -0.00002106  0.24335186  0.34704415  0.04596712  0.01187611  0.03464025  0.00060772     63.29

 Constraints section
ConstraintsConstraintsConstraintsConstraintsConstraintsConstraintsConstraintsConstraintsConstraintsConstraints
ConstraintsConstraintsConstraintsConstraintsConstraintsConstraintsConstraintsConstraintsConstraintsConstraints
Constraints                                                                                        Constraints
Constraints                                 C O N S T R A I N T S                                  Constraints
Constraints                                                                                        Constraints

************************************************************************************************************************
BO0001 = BOND       H11   C6
BO0002 = BOND       H11   C17
AN0001 = ANGLE      C6    H11   C17
VALUES
BO0001 =      2.00000000 ANGSTROM
BO0002 =      0.90000000 ANGSTROM
AN0001 =    180.00000000 DEGREE
************************************************************************************************************************


 *************************************************************
 * Values of the primitive constraints                       *
 *************************************************************
 BO0001   : Bond Length=  2.000000 / Angstrom  3.779452 / bohr
 BO0002   : Bond Length=  0.900000 / Angstrom  1.700754 / bohr
  Valence angle close to end in range of definition
 AN0001   : Angle=      179.9670   / Degree    3.141016 / rad

 *******************************************
 * Values of the constraints   / au or rad *
 *******************************************
   Label        C         C0
 Cns001      3.779452  3.779452
 Cns002      1.700754  1.700754
 Cns003      3.141016  3.141593

  19  -289.86952084  -289.86952064     0.00000020  0.24347998  0.34708936  0.04597311  0.00716145  0.02198056  0.00038562     66.33

 Constraints section
ConstraintsConstraintsConstraintsConstraintsConstraintsConstraintsConstraintsConstraintsConstraintsConstraints
ConstraintsConstraintsConstraintsConstraintsConstraintsConstraintsConstraintsConstraintsConstraintsConstraints
Constraints                                                                                        Constraints
Constraints                                 C O N S T R A I N T S                                  Constraints
Constraints                                                                                        Constraints

************************************************************************************************************************
BO0001 = BOND       H11   C6
BO0002 = BOND       H11   C17
AN0001 = ANGLE      C6    H11   C17
VALUES
BO0001 =      2.00000000 ANGSTROM
BO0002 =      0.90000000 ANGSTROM
AN0001 =    180.00000000 DEGREE
************************************************************************************************************************


 *************************************************************
 * Values of the primitive constraints                       *
 *************************************************************
 BO0001   : Bond Length=  2.000000 / Angstrom  3.779452 / bohr
 BO0002   : Bond Length=  0.900000 / Angstrom  1.700754 / bohr
  Valence angle close to end in range of definition
 AN0001   : Angle=      179.9167   / Degree    3.140138 / rad

 *******************************************
 * Values of the constraints   / au or rad *
 *******************************************
   Label        C         C0
 Cns001      3.779452  3.779452
 Cns002      1.700754  1.700754
 Cns003      3.140138  3.141593

 Geometry section
 Geometry section
  20  -289.86952064  -289.86951691     0.00000373  0.00014149  0.00034635  0.00004999  0.00551375  0.01797888  0.00031542     69.43

 END OF GEOMETRY OPTIMIZATION.

 Current geometry (xyz format, in Angstrom)

   19
 CF-UKS-SCF000/SVP  ENERGY=-289.86951691
 C         -8.3093829413        2.4863412654       -0.4740735489
 C         -6.7883509308        2.3788840528       -0.2680366201
 H         -8.5575100109        2.6946305203       -1.5363340787
 H         -8.7387103407        3.3077293607        0.1345002210
 H         -8.8250765120        1.5473741239       -0.1862020386
 C         -6.0784752732        3.6967111674       -0.6277854066
 C         -6.2178200475        1.1707423585       -0.9628165555
 H         -6.6232131015        2.2206741566        0.8329868385
 H         -6.1891630391        3.9318701596       -1.7078292722
 H         -4.9949403845        3.6649562944       -0.3974423829
 H         -6.5132077617        4.5421148539       -0.0574140376
 H         -6.6457306530        1.4109171393       -2.9016844181
 H         -6.8675449342        0.2762250447       -0.9870811312
 C         -4.7528980942        0.9595673181       -1.1611918422
 H         -4.2646109842        1.8017627496       -1.6997166162
 H         -4.5403629956        0.0290210978       -1.7242631010
 H         -4.2100171391        0.8750755960       -0.1862580494
 C         -6.8386258706        1.5207370237       -3.7738833793
 N         -7.0977589862        1.6741557176       -4.9001445809

 **********************************************************************************************************************************

 Geometry written to block  1 of record 700


 **********************************************************************************************************************************
 DATASETS  * FILE   NREC   LENGTH (MB)   RECORD NAMES
              1      19       31.21       500      610      700      900      950      970     1000      129      960     1100   
                                          VAR    BASINP    GEOM    SYMINP    ZMAT    AOBASIS   BASIS     P2S    ABASIS      S 
                                         1400     1410     1200     1210     1080     1600     1650     1700     1800   
                                           T        V       H0       H01     AOSYM     SMH    MOLCAS    OPER     GRID   

              2       7        8.10       700     1000      520     2100     1800     2200      520(1)
                                         GEOM     BASIS   MCVARS     RHF     GRID      UKS    MCVARS    

 PROGRAMS   *        TOTAL      OPTG    DF-UKS     DF-HF       INT
 CPU TIMES  *        75.74     69.44      2.89      2.97      0.30
 REAL TIME  *        84.36 SEC
 DISK USED  *        42.77 MB (local),      171.08 MB (total)
 SF USED    *        28.84 MB
 GA USED    *         3.27 MB       (max)       2.13 MB       (current)
 **********************************************************************************************************************************

 Density functional group PBE0=PBEX+PBEC
 Functional: PBEX(Automatically generated (new) PBEX)                          Gradient terms: 1
 Functional: PBEC(Automatically generated (new) PBEC)                          Gradient terms: 1
 Use libxcgrid:  F
 Use grid at  1800.2


 Exact exchange will be calculated, factor:  0.2500

 Functional: PBEX                      Factor:  0.7500
 Functional: PBEC                      Factor:  1.0000

  129907 words reserved for DFT integration

 PROGRAM * UKS-SCF (Unrestricted Kohn-Sham)     Authors: W. Meyer, H.-J. Werner, P.J. Knowles, 1993

 NUMBER OF ELECTRONS:      28+   27-    SPACE SYMMETRY=1    SPIN SYMMETRY: Doublet 
 CONVERGENCE THRESHOLDS:    1.00E-06 (Density)    1.00E-06 (Energy)
 INTEGRAL THRESHOLDS:       1.00E-11 (Initial)    1.00E-11 (Final)
 MAX. NUMBER OF ITERATIONS:       60
 INTERPOLATION TYPE:            DIIS
 INTERPOLATION STEPS:              2 (START)      1 (STEP)
 LEVEL SHIFTS:                 -0.20 (ALPHA)  -0.20 (BETA) 



 Use fine grid record 1800.2 for energy threshold  1.0D-06

 Coulomb fitting
 Screening thresholds:    THRAO_COUL= 1.0D-14    THRAO= 1.0D-12    THROV= 1.0D-12

 Reserved 2 MW to cache 100.0% of significant integrals (8 MW global). CPU: 0.1 sec

 Molecular orbitals read from record     2200.2  Type=UKS/ALPHA (state 1.1)
 Molecular orbitals read from record     2200.2  Type=UKS/BETA (state 1.1)

 Molecular orbital dump at record        2201.2

 Initial alpha occupation  28
 Initial beta  occupation  27

 Direct Fock-matrix evaluation.        Author: H.-J. Werner (1996)

 Integral Threshold:                  0.1D-09

 ITERATION   DDIFF            GRAD            ENERGY        2-EL.EN.            DIPOLE MOMENTS         DIIS   CPU(IT)  CPU(TOT)
    1      0.000D+00      0.000D+00      -289.91198953    819.743123    0.34545   -0.06444    1.32616    0      2.7      2.8
    2      0.167D-02      0.578D-03      -289.91495051    819.334260    0.34835   -0.07243    1.35018    1      2.4      5.2
    3      0.590D-03      0.122D-03      -289.91529203    819.507185    0.35023   -0.07352    1.36246    2      2.3      7.5
    4      0.265D-03      0.454D-04      -289.91536951    819.442666    0.34993   -0.07444    1.36694    3      2.0      9.6
    5      0.877D-04      0.198D-04      -289.91538327    819.500099    0.34902   -0.07450    1.36504    4      2.0     11.6
    6      0.307D-04      0.102D-04      -289.91538560    819.498766    0.34975   -0.07523    1.36862    5      2.4     14.0
    7      0.155D-04      0.709D-05      -289.91538652    819.493975    0.34918   -0.07493    1.36640    6      2.4     16.4
    8      0.631D-05      0.156D-05      -289.91538662    819.494198    0.34919   -0.07509    1.36648    7      2.4     18.8
    9      0.239D-05      0.704D-06      -289.91538664    819.494403    0.34918   -0.07508    1.36643    8      2.1     20.9
   10      0.721D-06      0.251D-06      -289.91538664    819.494493    0.34918   -0.07508    1.36640    8      2.1     23.1
   11      0.246D-06      0.167D-06      -289.91538664    819.494415    0.34918   -0.07508    1.36641    8      1.9     25.0

 Final alpha occupancy:  28
 Final beta  occupancy:  27

 !UKS STATE  1.1 Energy              -289.915386641723
 Nuclear energy                       283.05423570
 One-electron energy                 -949.74805248
 Two-electron energy                  409.74720739
 Density functional                   -32.96877725     PBEX=-41.60225186 PBEC= -1.76708836
 Virial quotient                       -1.01070169
 !UKS STATE  1.1 Dipole moment          0.34917966    -0.07508396     1.36640690
 Dipole moment /Debye                   0.88746803    -0.19083190     3.47283244

 Orbital energies for positive spin:

         1.1          2.1          3.1          4.1          5.1          6.1          7.1          8.1          9.1         10.1
    -14.408309   -10.266966   -10.256484   -10.255980   -10.247291   -10.237913   -10.237105    -0.925235    -0.843063    -0.765288

        11.1         12.1         13.1         14.1         15.1         16.1         17.1         18.1         19.1         20.1
     -0.704675    -0.663517    -0.647815    -0.564321    -0.491211    -0.470934    -0.454783    -0.433904    -0.409624    -0.400787

        21.1         22.1         23.1         24.1         25.1         26.1         27.1         28.1         29.1         30.1
     -0.388835    -0.387455    -0.368077    -0.366722    -0.361733    -0.355750    -0.351065    -0.221648     0.017243     0.019924

 Orbital energies for negative spin:

         1.1          2.1          3.1          4.1          5.1          6.1          7.1          8.1          9.1         10.1
    -14.408390   -10.265777   -10.257005   -10.248392   -10.240963   -10.237545   -10.236826    -0.924722    -0.831831    -0.756042

        11.1         12.1         13.1         14.1         15.1         16.1         17.1         18.1         19.1         20.1
     -0.703498    -0.656194    -0.638360    -0.550691    -0.484053    -0.466961    -0.449558    -0.421374    -0.408935    -0.399408

        21.1         22.1         23.1         24.1         25.1         26.1         27.1         28.1         29.1         30.1
     -0.387385    -0.385343    -0.367104    -0.366164    -0.357167    -0.353148    -0.344970    -0.053524     0.018503     0.021132


 HOMO     28.1    -0.221648 =      -6.0314eV
 LUMO    -28.1    -0.053524 =      -1.4565eV
 LUMO-HOMO         0.168124 =       4.5749eV

 EXPECTATION VALUE OF S**2:             0.75479394

 Occupation number threshold for pseudo-canonical orbitals: 1.9990 (occupied), 0.0010 (virtual)

 Number of pseudo-canonical occupied orbitals per symmetry:   26
 Number of active natural orbitals per symmetry:               3

 Natural orbitals saved to record    2201.2 (Orbital set 3)

 Orbital spaces for UNO-CAS (Min. occupation: 0.020  Max. occupation: 1.980):

 Closed:       27
 Active:        1


 **********************************************************************************************************************************
 DATASETS  * FILE   NREC   LENGTH (MB)   RECORD NAMES
              1      19       31.21       500      610      700      900      950      970     1000      129      960     1100   
                                          VAR    BASINP    GEOM    SYMINP    ZMAT    AOBASIS   BASIS     P2S    ABASIS      S 
                                         1400     1410     1200     1210     1080     1600     1650     1700     1800   
                                           T        V       H0       H01     AOSYM     SMH    MOLCAS    OPER     GRID   

              2       8       11.61       700     1000      520     2100     1800     2200      520(1)  2201   
                                         GEOM     BASIS   MCVARS     RHF     GRID      UKS    MCVARS     UKS  

 PROGRAMS   *        TOTAL    DF-UKS      OPTG    DF-UKS     DF-HF       INT
 CPU TIMES  *       100.76     25.01     69.44      2.89      2.97      0.30
 REAL TIME  *       110.44 SEC
 DISK USED  *        42.89 MB (local),      171.54 MB (total)
 SF USED    *        28.84 MB
 GA USED    *         3.27 MB       (max)       2.13 MB       (current)
 **********************************************************************************************************************************


 PROGRAM * OPT (Geometry optimization)     Authors: F. Eckert and H.-J. Werner


 BFGS update of hessian


********** USER DEFINED INT/FIX/CONSTRAINTS ****************

List of primitive internal coordinates

     N      Name     Type   Natoms   Atom list

     1    Bo0001     Bond        2      H11  C6  
     2    Bo0002     Bond        2      H11  C17 
     3    An0001     Angle       3      C6   H11  C17 

List of user defined internal/fixed coordinates and constraints

- - - - - - - - - - - - - - - - - - - - - - - - - - - - - - - - - 
    N      Name   Type      Pname     Coeff       Value   Unit
- - - - - - - - - - - - - - - - - - - - - - - - - - - - - - - - - 
    1    Cns001    Con     Bo0001     1.000     2.00000 Angstrom
- - - - - - - - - - - - - - - - - - - - - - - - - - - - - - - - - 
    2    Cns002    Con     Bo0002     1.000     0.90000 Angstrom
- - - - - - - - - - - - - - - - - - - - - - - - - - - - - - - - - 
    3    Cns003    Con     An0001     1.000   180.00000   Degree
- - - - - - - - - - - - - - - - - - - - - - - - - - - - - - - - - 


******************************************************************



 Geometry optimization using default procedure for command CF-UKS-SCF

 Geometry written to block  1 of record 700

 SLAPAF optimizer by R. Lindh and Ignacio F. Galvan entered

 Constraints section
ConstraintsConstraintsConstraintsConstraintsConstraintsConstraintsConstraintsConstraintsConstraintsConstraints
ConstraintsConstraintsConstraintsConstraintsConstraintsConstraintsConstraintsConstraintsConstraintsConstraints
Constraints                                                                                        Constraints
Constraints                                 C O N S T R A I N T S                                  Constraints
Constraints                                                                                        Constraints

************************************************************************************************************************
BO0001 = BOND       H11   C6
BO0002 = BOND       H11   C17
AN0001 = ANGLE      C6    H11   C17
VALUES
BO0001 =      2.00000000 ANGSTROM
BO0002 =      0.90000000 ANGSTROM
AN0001 =    180.00000000 DEGREE
************************************************************************************************************************


 *************************************************************
 * Values of the primitive constraints                       *
 *************************************************************
 BO0001   : Bond Length=  2.000000 / Angstrom  3.779452 / bohr
 BO0002   : Bond Length=  0.900000 / Angstrom  1.700754 / bohr
  Valence angle close to end in range of definition
 AN0001   : Angle=      179.8856   / Degree    3.139596 / rad

 *******************************************
 * Values of the constraints   / au or rad *
 *******************************************
   Label        C         C0
 Cns001      3.779452  3.779452
 Cns002      1.700754  1.700754
 Cns003      3.139596  3.141593


 ITER.   ENERGY(OLD)    ENERGY(NEW)      DE          GRADMAX     GRADNORM    GRADRMS     STEPMAX     STEPLEN     STEPRMS   CPU-time
   1  -289.91538664  -289.91638569    -0.00099905  0.27085276  0.36735491  0.04865735  0.02646957  0.08099469  0.00142096     28.55

 Constraints section
ConstraintsConstraintsConstraintsConstraintsConstraintsConstraintsConstraintsConstraintsConstraintsConstraints
ConstraintsConstraintsConstraintsConstraintsConstraintsConstraintsConstraintsConstraintsConstraintsConstraints
Constraints                                                                                        Constraints
Constraints                                 C O N S T R A I N T S                                  Constraints
Constraints                                                                                        Constraints

************************************************************************************************************************
BO0001 = BOND       H11   C6
BO0002 = BOND       H11   C17
AN0001 = ANGLE      C6    H11   C17
VALUES
BO0001 =      2.00000000 ANGSTROM
BO0002 =      0.90000000 ANGSTROM
AN0001 =    180.00000000 DEGREE
************************************************************************************************************************


 *************************************************************
 * Values of the primitive constraints                       *
 *************************************************************
 BO0001   : Bond Length=  2.000000 / Angstrom  3.779452 / bohr
 BO0002   : Bond Length=  0.900000 / Angstrom  1.700754 / bohr
  Valence angle close to end in range of definition
 AN0001   : Angle=      179.8963   / Degree    3.139784 / rad

 *******************************************
 * Values of the constraints   / au or rad *
 *******************************************
   Label        C         C0
 Cns001      3.779452  3.779452
 Cns002      1.700754  1.700754
 Cns003      3.139784  3.141593

   2  -289.91638569  -289.91645564    -0.00006995  0.23676066  0.33879113  0.04487398  0.01321271  0.03741716  0.00065644     54.17

 Constraints section
ConstraintsConstraintsConstraintsConstraintsConstraintsConstraintsConstraintsConstraintsConstraintsConstraints
ConstraintsConstraintsConstraintsConstraintsConstraintsConstraintsConstraintsConstraintsConstraintsConstraints
Constraints                                                                                        Constraints
Constraints                                 C O N S T R A I N T S                                  Constraints
Constraints                                                                                        Constraints

************************************************************************************************************************
BO0001 = BOND       H11   C6
BO0002 = BOND       H11   C17
AN0001 = ANGLE      C6    H11   C17
VALUES
BO0001 =      2.00000000 ANGSTROM
BO0002 =      0.90000000 ANGSTROM
AN0001 =    180.00000000 DEGREE
************************************************************************************************************************


 *************************************************************
 * Values of the primitive constraints                       *
 *************************************************************
 BO0001   : Bond Length=  2.000000 / Angstrom  3.779452 / bohr
 BO0002   : Bond Length=  0.900000 / Angstrom  1.700754 / bohr
  Valence angle close to end in range of definition
 AN0001   : Angle=      179.9925   / Degree    3.141462 / rad

 *******************************************
 * Values of the constraints   / au or rad *
 *******************************************
   Label        C         C0
 Cns001      3.779452  3.779452
 Cns002      1.700754  1.700754
 Cns003      3.141462  3.141593

   3  -289.91645564  -289.91645516     0.00000048  0.23787517  0.33949753  0.04496755  0.01011493  0.02247849  0.00039436     82.28

 Constraints section
ConstraintsConstraintsConstraintsConstraintsConstraintsConstraintsConstraintsConstraintsConstraintsConstraints
ConstraintsConstraintsConstraintsConstraintsConstraintsConstraintsConstraintsConstraintsConstraintsConstraints
Constraints                                                                                        Constraints
Constraints                                 C O N S T R A I N T S                                  Constraints
Constraints                                                                                        Constraints

************************************************************************************************************************
BO0001 = BOND       H11   C6
BO0002 = BOND       H11   C17
AN0001 = ANGLE      C6    H11   C17
VALUES
BO0001 =      2.00000000 ANGSTROM
BO0002 =      0.90000000 ANGSTROM
AN0001 =    180.00000000 DEGREE
************************************************************************************************************************


 *************************************************************
 * Values of the primitive constraints                       *
 *************************************************************
 BO0001   : Bond Length=  2.000000 / Angstrom  3.779452 / bohr
 BO0002   : Bond Length=  0.900000 / Angstrom  1.700754 / bohr
  Valence angle close to end in range of definition
 AN0001   : Angle=      179.9839   / Degree    3.141311 / rad

 *******************************************
 * Values of the constraints   / au or rad *
 *******************************************
   Label        C         C0
 Cns001      3.779452  3.779452
 Cns002      1.700754  1.700754
 Cns003      3.141311  3.141593

 Geometry section
 Geometry section
   4  -289.91645516  -289.91647504    -0.00001987  0.00021953  0.00059521  0.00008591  0.01022788  0.02057939  0.00036104    109.93

 END OF GEOMETRY OPTIMIZATION.

 Current geometry (xyz format, in Angstrom)

   19
 CF-UKS-SCF001/SVP  ENERGY=-289.91647504
 C         -8.2989974229        2.4842654191       -0.4676733836
 C         -6.7876008149        2.3782930237       -0.2665854129
 H         -8.5483698207        2.6894733379       -1.5217998335
 H         -8.7230752220        3.3008424246        0.1362904830
 H         -8.8093698590        1.5525810634       -0.1779223029
 C         -6.0836854692        3.6844546867       -0.6362187874
 C         -6.2239078059        1.1744668875       -0.9614083746
 H         -6.6173548922        2.2223674999        0.8235375724
 H         -6.1974494632        3.9111538963       -1.7093875840
 H         -5.0074936630        3.6536113793       -0.4103563388
 H         -6.5134045332        4.5272273845       -0.0738141918
 H         -6.6400177997        1.4197984728       -2.9021981330
 H         -6.8680152603        0.2860280287       -0.9839197839
 C         -4.7637650790        0.9662619294       -1.1593987689
 H         -4.2843206033        1.8027676475       -1.6963835548
 H         -4.5548542928        0.0429909919       -1.7197232147
 H         -4.2296635323        0.8819768177       -0.1909010640
 C         -6.8272527581        1.5301221921       -3.7755661811
 N         -7.0748017083        1.6808069170       -4.8912411456

 **********************************************************************************************************************************

 Geometry written to block  1 of record 700


 **********************************************************************************************************************************
[...]
    9      0.265D-05      0.497D-06      -290.23572322    823.222614    0.35122   -0.09403    1.45540    8      9.6     96.1
   10      0.708D-06      0.176D-06      -290.23572322    823.222618    0.35123   -0.09403    1.45540    8      8.7    104.8
   11      0.319D-06      0.885D-07      -290.23572322    823.222564    0.35122   -0.09403    1.45541    9      8.4    113.1

 Final alpha occupancy:  28
 Final beta  occupancy:  27

 !UKS STATE  1.1 Energy              -290.235723221145
 Nuclear energy                       284.64041766
 One-electron energy                 -953.41119797
 Two-electron energy                  411.61128209
 Density functional                   -33.07622501     PBEX=-41.75748776 PBEC= -1.75810919
 Virial quotient                       -1.00426414
 !UKS STATE  1.1 Dipole moment          0.35122294    -0.09403074     1.45541039
 Dipole moment /Debye                   0.89266120    -0.23898664     3.69904194

 Orbital energies for positive spin:

         1.1          2.1          3.1          4.1          5.1          6.1          7.1          8.1          9.1         10.1
    -14.398502   -10.248228   -10.246988   -10.244938   -10.232715   -10.222657   -10.221891    -0.940688    -0.855777    -0.777068

        11.1         12.1         13.1         14.1         15.1         16.1         17.1         18.1         19.1         20.1
     -0.715908    -0.671984    -0.657582    -0.573363    -0.496400    -0.475797    -0.458119    -0.439205    -0.413167    -0.404538

        21.1         22.1         23.1         24.1         25.1         26.1         27.1         28.1         29.1         30.1
     -0.394433    -0.391305    -0.372607    -0.371380    -0.364774    -0.357147    -0.353142    -0.223866     0.010552     0.012343

 Orbital energies for negative spin:

         1.1          2.1          3.1          4.1          5.1          6.1          7.1          8.1          9.1         10.1
    -14.398556   -10.247073   -10.245788   -10.233638   -10.232089   -10.222305   -10.221631    -0.940122    -0.844660    -0.767853

        11.1         12.1         13.1         14.1         15.1         16.1         17.1         18.1         19.1         20.1
     -0.714749    -0.664308    -0.648198    -0.559540    -0.489403    -0.471927    -0.453141    -0.426704    -0.412496    -0.403125

        21.1         22.1         23.1         24.1         25.1         26.1         27.1         28.1         29.1         30.1
     -0.393897    -0.388248    -0.371751    -0.370818    -0.359713    -0.354749    -0.347268    -0.058127     0.011944     0.013791


 HOMO     28.1    -0.223866 =      -6.0917eV
 LUMO    -28.1    -0.058127 =      -1.5817eV
 LUMO-HOMO         0.165739 =       4.5100eV

 EXPECTATION VALUE OF S**2:             0.75512815

 Occupation number threshold for pseudo-canonical orbitals: 1.9990 (occupied), 0.0010 (virtual)

 Number of pseudo-canonical occupied orbitals per symmetry:   26
 Number of active natural orbitals per symmetry:               3

 Natural orbitals saved to record    2204.2 (Orbital set 3)

 Orbital spaces for UNO-CAS (Min. occupation: 0.020  Max. occupation: 1.980):

 Closed:       27
 Active:        1


 **********************************************************************************************************************************
 DATASETS  * FILE   NREC   LENGTH (MB)   RECORD NAMES
              1      19       33.38       500      610      700      900      950      970     1001      129      960     1100   
                                          VAR    BASINP    GEOM    SYMINP    ZMAT    AOBASIS   BASIS     P2S    ABASIS      S 
                                         1400     1410     1200     1210     1080     1600     1650     1700     1800   
                                           T        V       H0       H01     AOSYM     SMH    MOLCAS    OPER     GRID   

              2      12       26.89       700     1000      520     2100     1800     2200      520(1)  2201     2202     1001   
                                         GEOM     BASIS   MCVARS     RHF     GRID      UKS    MCVARS     UKS      UKS     BASIS   
                                         2203     2204   
                                          UKS      UKS  

 PROGRAMS   *        TOTAL    DF-UKS    DF-UKS       INT    DF-UKS      OPTG    DF-UKS      OPTG    DF-UKS     DF-HF       INT
 CPU TIMES  *       332.03    113.21      5.47      0.39      2.27    109.93     25.01     69.44      2.89      2.97      0.30
 REAL TIME  *       343.74 SEC
 DISK USED  *        60.36 MB (local),      241.45 MB (total)
 SF USED    *        28.84 MB
 GA USED    *         3.27 MB       (max)       2.12 MB       (current)
 **********************************************************************************************************************************

 Density functional group PBE0=PBEX+PBEC
 Functional: PBEX(Automatically generated (new) PBEX)                          Gradient terms: 1
 Functional: PBEC(Automatically generated (new) PBEC)                          Gradient terms: 1
 Use libxcgrid:  F
 Use grid at  1800.2


 Exact exchange will be calculated, factor:  0.2500

 Functional: PBEX                      Factor:  0.7500
 Functional: PBEC                      Factor:  1.0000

  234265 words reserved for DFT integration

 PROGRAM * UKS-SCF (Unrestricted Kohn-Sham)     Authors: W. Meyer, H.-J. Werner, P.J. Knowles, 1993

 NUMBER OF ELECTRONS:      28+   27-    SPACE SYMMETRY=1    SPIN SYMMETRY: Doublet 
 CONVERGENCE THRESHOLDS:    1.00E-06 (Density)    1.00E-06 (Energy)
 INTEGRAL THRESHOLDS:       1.00E-11 (Initial)    1.00E-11 (Final)
 MAX. NUMBER OF ITERATIONS:       60
 INTERPOLATION TYPE:            DIIS
 INTERPOLATION STEPS:              2 (START)      1 (STEP)
 LEVEL SHIFTS:                 -0.20 (ALPHA)  -0.20 (BETA) 



 Use fine grid record 1800.2 for energy threshold  1.0D-06
 Molecular orbitals read from record     2204.2  Type=UKS/ALPHA (state 1.1)
 Molecular orbitals read from record     2204.2  Type=UKS/BETA (state 1.1)

 Molecular orbital dump at record        2205.2

 Initial alpha occupation  28
 Initial beta  occupation  27

 Direct Fock-matrix evaluation.        Author: H.-J. Werner (1996)

 Integral Threshold:                  0.1D-10

 ITERATION   DDIFF            GRAD            ENERGY        2-EL.EN.            DIPOLE MOMENTS         DIIS   CPU(IT)  CPU(TOT)
    1      0.000D+00      0.000D+00      -290.23544987    823.223111    0.35122   -0.09403    1.45541    0     12.2     12.2
    2      0.411D-04      0.834D-05      -290.23545143    823.219434    0.35122   -0.09407    1.45539    1     11.1     23.2
    3      0.133D-04      0.144D-05      -290.23545152    823.220493    0.35119   -0.09411    1.45532    2     10.8     34.0
    4      0.483D-05      0.299D-06      -290.23545152    823.220336    0.35122   -0.09414    1.45537    3     10.7     44.7
    5      0.899D-06      0.158D-06      -290.23545153    823.220566    0.35119   -0.09414    1.45530    4      9.9     54.6
    6      0.619D-06      0.990D-07      -290.23545153    823.220630    0.35121   -0.09415    1.45534    5      9.8     64.4

 Final alpha occupancy:  28
 Final beta  occupancy:  27

 !UKS STATE  1.1 Energy              -290.235451525716
 Nuclear energy                       284.64041766
 One-electron energy                 -953.41025634
 Two-electron energy                  411.61031491
 Density functional                   -33.07592775     PBEX=-41.75703168 PBEC= -1.75815399
 Virial quotient                       -1.00427809
 !UKS STATE  1.1 Dipole moment          0.35120601    -0.09415077     1.45533907
 Dipole moment /Debye                   0.89261817    -0.23929171     3.69886068

 Orbital energies for positive spin:

         1.1          2.1          3.1          4.1          5.1          6.1          7.1          8.1          9.1         10.1
    -14.398547   -10.248320   -10.246994   -10.244950   -10.232770   -10.222703   -10.221940    -0.940691    -0.855777    -0.777074

        11.1         12.1         13.1         14.1         15.1         16.1         17.1         18.1         19.1         20.1
     -0.715913    -0.671992    -0.657585    -0.573363    -0.496404    -0.475800    -0.458126    -0.439211    -0.413180    -0.404539

        21.1         22.1         23.1         24.1         25.1         26.1         27.1         28.1         29.1         30.1
     -0.394402    -0.391304    -0.372622    -0.371398    -0.364773    -0.357154    -0.353138    -0.223848     0.010512     0.012341

 Orbital energies for negative spin:

         1.1          2.1          3.1          4.1          5.1          6.1          7.1          8.1          9.1         10.1
    -14.398604   -10.247163   -10.245800   -10.233693   -10.232095   -10.222352   -10.221680    -0.940130    -0.844659    -0.767859

        11.1         12.1         13.1         14.1         15.1         16.1         17.1         18.1         19.1         20.1
     -0.714755    -0.664317    -0.648197    -0.559536    -0.489405    -0.471929    -0.453148    -0.426709    -0.412508    -0.403126

        21.1         22.1         23.1         24.1         25.1         26.1         27.1         28.1         29.1         30.1
     -0.393871    -0.388247    -0.371771    -0.370840    -0.359709    -0.354755    -0.347263    -0.058096     0.011904     0.013788


 HOMO     28.1    -0.223848 =      -6.0912eV
 LUMO    -28.1    -0.058096 =      -1.5809eV
 LUMO-HOMO         0.165752 =       4.5104eV

 EXPECTATION VALUE OF S**2:             0.75512949

 Occupation number threshold for pseudo-canonical orbitals: 1.9990 (occupied), 0.0010 (virtual)

 Number of pseudo-canonical occupied orbitals per symmetry:   26
 Number of active natural orbitals per symmetry:               3

 Natural orbitals saved to record    2205.2 (Orbital set 3)

 Orbital spaces for UNO-CAS (Min. occupation: 0.020  Max. occupation: 1.980):

 Closed:       27
 Active:        1


 **********************************************************************************************************************************
 DATASETS  * FILE   NREC   LENGTH (MB)   RECORD NAMES
              1      19       33.38       500      610      700      900      950      970     1001      129      960     1100   
                                          VAR    BASINP    GEOM    SYMINP    ZMAT    AOBASIS   BASIS     P2S    ABASIS      S 
                                         1400     1410     1200     1210     1080     1600     1650     1700     1800   
                                           T        V       H0       H01     AOSYM     SMH    MOLCAS    OPER     GRID   

              2      13       32.75       700     1000      520     2100     1800     2200      520(1)  2201     2202     1001   
                                         GEOM     BASIS   MCVARS     RHF     GRID      UKS    MCVARS     UKS      UKS     BASIS   
                                         2203     2204     2205   
                                          UKS      UKS      UKS  

 PROGRAMS   *        TOTAL   UKS-SCF    DF-UKS    DF-UKS       INT    DF-UKS      OPTG    DF-UKS      OPTG    DF-UKS     DF-HF
 CPU TIMES  *       396.50     64.46    113.21      5.47      0.39      2.27    109.93     25.01     69.44      2.89      2.97
 REAL TIME  *       408.26 SEC
 DISK USED  *        66.22 MB (local),      264.87 MB (total)
 SF USED    *        28.84 MB
 GA USED    *         3.27 MB       (max)       2.12 MB       (current)
 **********************************************************************************************************************************

 Density functional group B3LYP=B88+DIRAC+LYP+VWN5
 Functional: B88(Automatically generated (new) B88)                            Gradient terms: 1
 Functional: DIRAC(Automatically generated (new) DIRAC)                        Gradient terms: 0
 Functional: LYP(Automatically generated (new) LYP)                            Gradient terms: 1
 Functional: VWN5(Automatically generated (new) VWN5)                          Gradient terms: 0
 Use libxcgrid:  F
 Use grid at  1800.2


 Exact exchange will be calculated, factor:  0.2000

 Functional: B88                       Factor:  0.7200
 Functional: DIRAC                     Factor:  0.0800
 Functional: LYP                       Factor:  0.8100
 Functional: VWN5                      Factor:  0.1900

  234265 words reserved for DFT integration

 PROGRAM * UKS-SCF (Unrestricted Kohn-Sham)     Authors: W. Meyer, H.-J. Werner, P.J. Knowles, 1993

 NUMBER OF ELECTRONS:      28+   27-    SPACE SYMMETRY=1    SPIN SYMMETRY: Doublet 
 CONVERGENCE THRESHOLDS:    1.00E-06 (Density)    1.00E-06 (Energy)
 INTEGRAL THRESHOLDS:       1.00E-11 (Initial)    1.00E-11 (Final)
 MAX. NUMBER OF ITERATIONS:       60
 INTERPOLATION TYPE:            DIIS
 INTERPOLATION STEPS:              2 (START)      1 (STEP)
 LEVEL SHIFTS:                 -0.20 (ALPHA)  -0.20 (BETA) 



 Use fine grid record 1800.2 for energy threshold  1.0D-06
 Molecular orbitals read from record     2205.2  Type=UKS/ALPHA (state 1.1)
 Molecular orbitals read from record     2205.2  Type=UKS/BETA (state 1.1)

 Molecular orbital dump at record        2206.2

 Initial alpha occupation  28
 Initial beta  occupation  27

 Direct Fock-matrix evaluation.        Author: H.-J. Werner (1996)

 Integral Threshold:                  0.1D-10

 ITERATION   DDIFF            GRAD            ENERGY        2-EL.EN.            DIPOLE MOMENTS         DIIS   CPU(IT)  CPU(TOT)
    1      0.000D+00      0.000D+00      -290.40741268    827.414553    0.35121   -0.09415    1.45534    0     12.7     12.7
    2      0.114D-02      0.388D-03      -290.41135360    827.762047    0.35282   -0.09500    1.46177    1     11.0     23.6
    3      0.263D-03      0.624D-04      -290.41154312    827.436315    0.34692   -0.09382    1.43986    2     11.3     35.0
    4      0.114D-03      0.304D-04      -290.41157426    827.462521    0.35013   -0.09636    1.45266    3     10.9     45.8
    5      0.667D-04      0.123D-04      -290.41158098    827.474076    0.34900   -0.09482    1.44639    4     10.4     56.2
    6      0.496D-04      0.435D-05      -290.41158265    827.454733    0.34924   -0.09480    1.44661    5     11.1     67.3
    7      0.194D-04      0.149D-05      -290.41158297    827.457194    0.34924   -0.09481    1.44640    6     10.6     77.9
    8      0.515D-05      0.591D-06      -290.41158302    827.455740    0.34928   -0.09467    1.44628    7     10.2     88.0
    9      0.180D-05      0.219D-06      -290.41158303    827.455873    0.34928   -0.09469    1.44626    7     10.2     98.2
   10      0.554D-06      0.105D-06      -290.41158303    827.455865    0.34929   -0.09468    1.44629    8     10.0    108.2
   11      0.231D-06      0.460D-07      -290.41158303    827.455887    0.34929   -0.09468    1.44629    8      9.2    117.4

 Final alpha occupancy:  28
 Final beta  occupancy:  27

 !UKS STATE  1.1 Energy              -290.411583033271
 Nuclear energy                       284.64041766
 One-electron energy                 -953.41145231
 Two-electron energy                  413.72794348
 Density functional                   -35.36849187     B88=-42.02517979 DIRAC=-37.78256843 LYP= -1.76878267 VWN5= -3.44759465
 Virial quotient                       -1.00387938
 !UKS STATE  1.1 Dipole moment          0.34928904    -0.09467790     1.44628982
 Dipole moment /Debye                   0.88774603    -0.24063146     3.67586128

 Orbital energies for positive spin:

         1.1          2.1          3.1          4.1          5.1          6.1          7.1          8.1          9.1         10.1
    -14.331356   -10.198464   -10.190699   -10.190391   -10.180717   -10.170493   -10.169668    -0.915604    -0.829460    -0.753329

        11.1         12.1         13.1         14.1         15.1         16.1         17.1         18.1         19.1         20.1
     -0.694341    -0.654955    -0.638046    -0.555647    -0.480876    -0.460887    -0.443580    -0.425749    -0.400981    -0.392752

        21.1         22.1         23.1         24.1         25.1         26.1         27.1         28.1         29.1         30.1
     -0.380701    -0.379678    -0.360063    -0.358574    -0.353504    -0.346088    -0.342678    -0.209879     0.002391     0.004023

 Orbital energies for negative spin:

         1.1          2.1          3.1          4.1          5.1          6.1          7.1          8.1          9.1         10.1
    -14.331384   -10.197349   -10.191148   -10.181479   -10.176820   -10.170160   -10.169422    -0.915044    -0.819612    -0.745085

        11.1         12.1         13.1         14.1         15.1         16.1         17.1         18.1         19.1         20.1
     -0.693320    -0.648897    -0.629102    -0.543207    -0.474730    -0.457594    -0.439018    -0.414651    -0.400337    -0.391459

        21.1         22.1         23.1         24.1         25.1         26.1         27.1         28.1         29.1         30.1
     -0.380058    -0.376943    -0.359049    -0.358012    -0.348962    -0.343739    -0.337318    -0.070013     0.003370     0.005066


 HOMO     28.1    -0.209879 =      -5.7111eV
 LUMO    -28.1    -0.070013 =      -1.9052eV
 LUMO-HOMO         0.139865 =       3.8059eV

 EXPECTATION VALUE OF S**2:             0.75418424

 Occupation number threshold for pseudo-canonical orbitals: 1.9990 (occupied), 0.0010 (virtual)

 Number of pseudo-canonical occupied orbitals per symmetry:   26
 Number of active natural orbitals per symmetry:               3

 Natural orbitals saved to record    2206.2 (Orbital set 3)

 Orbital spaces for UNO-CAS (Min. occupation: 0.020  Max. occupation: 1.980):

 Closed:       27
 Active:        1


 **********************************************************************************************************************************
 DATASETS  * FILE   NREC   LENGTH (MB)   RECORD NAMES
              1      19       33.38       500      610      700      900      950      970     1001      129      960     1100   
                                          VAR    BASINP    GEOM    SYMINP    ZMAT    AOBASIS   BASIS     P2S    ABASIS      S 
                                         1400     1410     1200     1210     1080     1600     1650     1700     1800   
                                           T        V       H0       H01     AOSYM     SMH    MOLCAS    OPER     GRID   

              2      14       38.60       700     1000      520     2100     1800     2200      520(1)  2201     2202     1001   
                                         GEOM     BASIS   MCVARS     RHF     GRID      UKS    MCVARS     UKS      UKS     BASIS   
                                         2203     2204     2205     2206   
                                          UKS      UKS      UKS      UKS  

 PROGRAMS   *        TOTAL   UKS-SCF   UKS-SCF    DF-UKS    DF-UKS       INT    DF-UKS      OPTG    DF-UKS      OPTG    DF-UKS
 CPU TIMES  *       513.98    117.47     64.46    113.21      5.47      0.39      2.27    109.93     25.01     69.44      2.89
 REAL TIME  *       525.84 SEC
 DISK USED  *        72.07 MB (local),      288.29 MB (total)
 SF USED    *        28.84 MB
 GA USED    *         3.27 MB       (max)       2.12 MB       (current)
 **********************************************************************************************************************************

 UB3LYP/TZVP//CF-UKS/SVP energy=   -290.411583033271

         UKS-SCF         UKS-SCF          DF-UKS          DF-UKS          DF-UKS    OPTG(DF-UKS)          DF-UKS    OPTG(DF-UKS)
   -290.41158303   -290.23545153   -290.23572322   -290.19510038   -289.86847267   -289.91647504   -289.91538664   -289.86951691
 **********************************************************************************************************************************
 Molpro calculation terminated
