
 Primary working directories    : /mnt/storage/home/lb17101/scratch/1382163/molpro.ANEKlMDFvR
 Secondary working directories  : /mnt/storage/home/lb17101/scratch/1382163/molpro.ANEKlMDFvR
 Wavefunction directory         : /mnt/storage/home/lb17101/optimizations/11/
 Main file repository           : /mnt/storage/home/lb17101/optimizations/11/

 id        : simonbennie

 Nodes                   nprocs
 compute075.bc4.acrc.priv    4

 Using customized tuning parameters: mindgm=1; mindgv=20; mindgc=4; mindgr=1; noblas=0; minvec=7
 default implementation of scratch files=sf  


 Variables initialized (924), CPU time= 0.00 sec
 memory,536,m
 
 geomtyp=xyz
 
 nosym
 noorient
 gdirect
 angstrom
 
 geometry=input.xyz
 Including file /mnt/storage/home/lb17101/optimizations/11/input.xyz
 
 set,charge=0
 
 basis=svp
 df-hf
 {cf-uks,pbe;}
 {optg,method=slrf,maxiter=100;
 constraint,2.000,angstrom,bond,atoms=[H11,C6]
 constraint,2.400,angstrom,bond,atoms=[H11,C17]
 constraint,180,deg,angle,atoms=[C6,H11,C17]
 {slopt;}}
 {cf-uks,pbe0;}
 {optg,method=slrf,maxiter=20;
 constraint,2.000,angstrom,bond,atoms=[H11,C6]
 constraint,2.400,angstrom,bond,atoms=[H11,C17]
 constraint,180,deg,angle,atoms=[C6,H11,C17]
 {slopt;}}
 {cf-uks,pbe;}
 basis=tzvp
 {cf-uks,pbe;}
 {cf-uks,pbe0;}
 {uks,pbe0;}
 {uks,b3lyp;}
 Commands  initialized (760), CPU time= 0.01 sec, 616 directives.
 Default parameters read. Elapsed time= 0.05 sec

 Checking input...
 Passed
1


                                         ***  PROGRAM SYSTEM MOLPRO  ***
                                       Copyright, TTI GmbH Stuttgart, 2015
                                    Version 2018.1 linked Oct 16 2018 14:32:03


 **********************************************************************************************************************************
 LABEL *                                                                                 
  64 bit mpp version                                                                     DATE: 13-Nov-18          TIME: 11:27:33  
 **********************************************************************************************************************************

 SHA1:             d673ad554fd0a1ae99daa449513f8b88cca0f763
 **********************************************************************************************************************************
 SETTING GEOMTYP        =    XYZ

 Variable memory set to  536000000 words,  buffer space 

 ZSYMEL=NOSYM
 ZUNIT=ANG

 SETTING CHARGE         =     0.00000000D+00                                  
 SETTING BASIS          =    SVP


 Recomputing integrals since basis changed


 Using spherical harmonics

 Library entry C      S def2-SVP             selected for orbital group  1
 Library entry C      P def2-SVP             selected for orbital group  1
 Library entry C      D def2-SVP             selected for orbital group  1
 Library entry H      S def2-SVP             selected for orbital group  2
 Library entry H      P def2-SVP             selected for orbital group  2
 Library entry N      S def2-SVP             selected for orbital group  8
 Library entry N      P def2-SVP             selected for orbital group  8
 Library entry N      D def2-SVP             selected for orbital group  8


 PROGRAM * SEWARD (Integral evaluation for generally contracted gaussian basis sets)     Author: Roland Lindh, 1990

 Geometry written to block  1 of record 700


 Point group  C1  



 ATOMIC COORDINATES

 NR  ATOM    CHARGE       X              Y              Z

   1  C0      6.00  -15.623034457    4.456181068   -0.744963817
   2  C1      6.00  -12.754161497    4.471148812   -0.270646497
   3  H2      1.00  -16.050724045    4.674077832   -2.791508804
   4  H3      1.00  -16.572723553    6.025924871    0.266890858
   5  H4      1.00  -16.494424527    2.659733771   -0.105170181
   6  C5      6.00  -11.570266300    7.002201743   -1.086802570
   7  C6      6.00  -11.492126434    2.196457185   -1.416610084
   8  H7      1.00  -12.474168993    4.333386856    1.830631913
   9  H8      1.00  -11.763135953    7.285372778   -3.155238719
  10  H9      1.00   -9.533873707    7.111716548   -0.612814725
  11  H10     1.00  -12.520738188    8.609141184   -0.135413196
  12  H11     1.00  -13.007317023    2.744903906   -6.851534638
  13  H12     1.00  -12.665161079    0.480079678   -1.598889749
  14  C13     6.00   -8.691617909    1.890885500   -1.553555080
  15  H14     1.00   -7.738367918    3.530069106   -2.457983525
  16  H15     1.00   -8.137223237    0.166611698   -2.602303197
  17  H16     1.00   -7.827415309    1.731359762    0.371967837
  18  C17     6.00  -13.531628172    3.097804943   -8.831810575
  19  N18     7.00  -14.089116397    3.480071945  -10.933086168

 Bond lengths in Bohr (Angstrom)

 1-2  2.907857117  1-3  2.102080819  1-4  2.095198050  1-5  2.096635267  2-6  2.911004554
     ( 1.538771719)     ( 1.112373265)     ( 1.108731061)     ( 1.109491603)     ( 1.540437271)

  2- 7  2.842566981   2- 8  2.124322271   6- 9  2.096619336   6-10  2.093693570   6-11  2.095421895
       ( 1.504221667)       ( 1.124142935)       ( 1.109483172)       ( 1.107934924)       ( 1.108849514)

  7-13  2.086908695   7-14  2.820456698  12-18  2.078685669  14-15  2.100856790  14-16  2.092927664
       ( 1.104344523)       ( 1.492521409)       ( 1.099993085)       ( 1.111725537)       ( 1.107529624)

 14-17  2.116585245  18-19  2.207324240
       ( 1.120048677)       ( 1.168065685)

 Bond angles

  1-2-6  111.09939358   1-2-7  111.60137794   1-2-8  106.92075244   2-1-3  111.03911382

  2- 1- 4  111.38057269   2- 1- 5  111.38769550   2- 6- 9  110.89278884   2- 6-10  112.18344479

  2- 6-11  110.79429451   2- 7-13  116.34663244   2- 7-14  123.16888649   3- 1- 4  107.47545775

  3-1-5  107.53847579   4-1-5  107.82953177   6-2-7  113.71478466   6-2-8  106.26673734

  7- 2- 8  106.75971964   7-14-15  112.76201543   7-14-16  112.12347607   7-14-17  111.67904931

  9- 6-10  107.80351523   9- 6-11  107.61546168  10- 6-11  107.35429488  12-18-19  179.79963244

 13- 7-14  117.69536096  15-14-16  107.87231350  15-14-17  105.37802152  16-14-17  106.59532687

 NUCLEAR CHARGE:                   55
 NUMBER OF PRIMITIVE AOS:         259
 NUMBER OF SYMMETRY AOS:          252
 NUMBER OF CONTRACTIONS:          158   (  158A   )
 NUMBER OF CORE ORBITALS:           7   (    7A   )
 NUMBER OF VALENCE ORBITALS:       40   (   40A   )


 NUCLEAR REPULSION ENERGY  266.36079263


 Eigenvalues of metric

         1 0.186E-02 0.367E-02 0.455E-02 0.556E-02 0.740E-02 0.190E-01 0.201E-01 0.227E-01


 OPERATOR DM      FOR CENTER  0  COORDINATES:    0.000000    0.000000    0.000000


 **********************************************************************************************************************************
 DATASETS  * FILE   NREC   LENGTH (MB)   RECORD NAMES
              1      18       31.21       500      610      700      900      950      970     1000      129      960     1100   
                                          VAR    BASINP    GEOM    SYMINP    ZMAT    AOBASIS   BASIS     P2S    ABASIS      S 
                                         1400     1410     1200     1210     1080     1600     1650     1700   
                                           T        V       H0       H01     AOSYM     SMH    MOLCAS    OPER   

 PROGRAMS   *        TOTAL       INT
 CPU TIMES  *         0.42      0.29
 REAL TIME  *         0.72 SEC
 DISK USED  *        31.83 MB (local),      127.32 MB (total)
 GA USED    *         0.00 MB       (max)       0.00 MB       (current)
 **********************************************************************************************************************************


 PROGRAM * RHF-SCF (OPEN SHELL)       Authors: W. Meyer, H.-J. Werner


 NUMBER OF ELECTRONS:      28+   27-    SPACE SYMMETRY=1    SPIN SYMMETRY: Doublet 
 CONVERGENCE THRESHOLDS:    1.00E-06 (Density)    1.00E-07 (Energy)
 INTEGRAL THRESHOLDS:       1.00E-11 (Initial)    1.00E-11 (Final)
 MAX. NUMBER OF ITERATIONS:       60
 INTERPOLATION TYPE:            DIIS
 INTERPOLATION STEPS:              2 (START)      1 (STEP)
 LEVEL SHIFTS:                 -0.60 (CLOSED) -0.30 (OPEN) 




 Basis set DEF2-SVP/JKFIT generated.     Number of basis functions:   560 

 Orbital guess generated from atomic densities. Full valence occupancy:   28
 Using density fitting in orbital guess

 Coulomb and exchange fitting
 Thresholds for fitting:       THRAO_COUL= 1.0D-14    THRAO_EXCH= 1.0D-12    THRMO= 1.0D-11    THRPROD= 1.0D-11    THRASM= 1.0D-11
                               THR2HLF=    1.0D-11

 Molecular orbital dump at record        2100.2

 Initial alpha occupancy:  28
 Initial beta  occupancy:  27
 Wave function symmetry:    1

 ITERATION   DDIFF            GRAD            ENERGY        2-EL.EN.            DIPOLE MOMENTS         DIIS   CPU(IT)  CPU(TOT)  ORB.
    1      0.000D+00      0.000D+00      -288.25515683    724.827716    0.67741   -0.23183    2.05219    0      0.2      0.5     start
    2      0.000D+00      0.406D-02      -288.33519995    721.922907    0.46565   -0.17005    1.54480    1      0.2      0.7     diag,B
    3      0.309D-02      0.158D-02      -288.35112100    722.030083    0.44885   -0.19605    1.57807    2      0.2      0.8     diag,B
    4      0.154D-02      0.759D-03      -288.35755801    721.990573    0.41407   -0.19475    1.51512    3      0.2      1.0     diag,B
    5      0.137D-02      0.213D-03      -288.35821314    721.956796    0.40924   -0.19627    1.50450    4      0.2      1.2     diag,B
    6      0.557D-03      0.747D-04      -288.35830788    721.929508    0.40777   -0.19595    1.49795    5      0.2      1.4     diag,B
    7      0.256D-03      0.223D-04      -288.35831674    721.921956    0.40736   -0.19545    1.49531    6      0.2      1.5     fixocc
    8      0.755D-04      0.734D-05      -288.35831791    721.921394    0.40711   -0.19509    1.49409    7      0.2      1.7     diag,B
    9      0.289D-04      0.264D-05      -288.35831809    721.921643    0.40702   -0.19494    1.49373    8      0.2      1.9     diag,B
   10      0.135D-04      0.845D-06      -288.35831811    721.921787    0.40701   -0.19490    1.49369    9      0.2      2.1     orth
   11      0.451D-05      0.308D-06      -288.35831812    721.921789    0.40701   -0.19489    1.49370    9      0.2      2.2     diag,B
   12      0.165D-05      0.106D-06      -288.35831812    721.921778    0.40701   -0.19489    1.49371    9      0.2      2.4     diag,B
   13      0.556D-06      0.365D-07      -288.35831812    721.921773    0.40701   -0.19489    1.49371    0      0.2      2.6     orth

 Final alpha occupancy:  28
 Final beta  occupancy:  27

 !RHF STATE  1.1 Energy              -288.358318116313
 Nuclear energy                       266.36079263
 One-electron energy                 -915.67999731
 Two-electron energy                  360.96088657
 Virial quotient                       -1.00689617
 !RHF STATE  1.1 Dipole moment          0.40700983    -0.19488966     1.49370591
 Dipole moment /Debye                   1.03444804    -0.49532765     3.79637307

 Orbital energies:

         1.1          2.1          3.1          4.1          5.1          6.1          7.1          8.1          9.1         10.1
    -15.598835   -11.299230   -11.247100   -11.242892   -11.238344   -11.236433   -11.235547    -1.211249    -1.086418    -0.990694

        11.1         12.1         13.1         14.1         15.1         16.1         17.1         18.1         19.1         20.1
     -0.926015    -0.848804    -0.786408    -0.740048    -0.636462    -0.618646    -0.596091    -0.571540    -0.562510    -0.548054

        21.1         22.1         23.1         24.1         25.1         26.1         27.1         28.1         29.1         30.1
     -0.539342    -0.524043    -0.487885    -0.486673    -0.485850    -0.480671    -0.474620    -0.357411     0.150175     0.166889


 HOMO     28.1    -0.357411 =      -9.7256eV
 LUMO     29.1     0.150175 =       4.0865eV
 LUMO-HOMO         0.507586 =      13.8121eV


 **********************************************************************************************************************************
 DATASETS  * FILE   NREC   LENGTH (MB)   RECORD NAMES
              1      18       31.21       500      610      700      900      950      970     1000      129      960     1100   
                                          VAR    BASINP    GEOM    SYMINP    ZMAT    AOBASIS   BASIS     P2S    ABASIS      S 
                                         1400     1410     1200     1210     1080     1600     1650     1700   
                                           T        V       H0       H01     AOSYM     SMH    MOLCAS    OPER   

              2       4        3.88       700     1000      520     2100   
                                         GEOM     BASIS   MCVARS     RHF  

 PROGRAMS   *        TOTAL     DF-HF       INT
 CPU TIMES  *         3.02      2.60      0.29
 REAL TIME  *         3.52 SEC
 DISK USED  *        38.78 MB (local),      155.11 MB (total)
 SF USED    *        30.29 MB
 GA USED    *         3.27 MB       (max)       0.00 MB       (current)
 **********************************************************************************************************************************

 Density functional group PBE=PBEX+PBEC
 Functional: PBEX(Automatically generated (new) PBEX)                          Gradient terms: 1
 Functional: PBEC(Automatically generated (new) PBEC)                          Gradient terms: 1
 Use libxcgrid:  F
 Use grid at  1800.2

 Functional: PBEX                      Factor:  1.0000
 Functional: PBEC                      Factor:  1.0000

 Generated new metagrid on record  1800.2 with target accuracy 1.0D-06 and 63368 points in CPU time    0.3
 Computed new grid on record 1800.1 in CPU time    0.4
  129907 words reserved for DFT integration

 PROGRAM * UKS-SCF (Unrestricted Kohn-Sham)     Authors: W. Meyer, H.-J. Werner, P.J. Knowles, 1993

 NUMBER OF ELECTRONS:      28+   27-    SPACE SYMMETRY=1    SPIN SYMMETRY: Doublet 
 CONVERGENCE THRESHOLDS:    1.00E-06 (Density)    1.00E-06 (Energy)
 INTEGRAL THRESHOLDS:       1.00E-11 (Initial)    1.00E-11 (Final)
 MAX. NUMBER OF ITERATIONS:       60
 INTERPOLATION TYPE:            DIIS
 INTERPOLATION STEPS:              2 (START)      1 (STEP)
 LEVEL SHIFTS:                 -0.20 (ALPHA)  -0.20 (BETA) 



 Use fine grid record 1800.2 for energy threshold  1.0D-06

 Basis set DEF2-SVP/JFIT generated.      Number of basis functions:   475 
 Coulomb fitting
 Screening thresholds:    THRAO_COUL= 1.0D-14    THRAO= 1.0D-12    THROV= 1.0D-12

 Reserved 1 MW to cache 100.0% of significant integrals (4 MW global). CPU: 0.1 sec

 Molecular orbitals read from record     2100.2  Type=RHF/CANONICAL (state 1.1)

 Molecular orbital dump at record        2200.2

 Initial alpha occupation  28
 Initial beta  occupation  27

 ITERATION    DDIFF          GRAD             ENERGY        2-EL.EN.            DIPOLE MOMENTS         DIIS  CPU(IT) CPU(TOT)
    1      0.000D+00      0.000D+00      -289.86338031    805.399339    0.40701   -0.19489    1.49371    0      0.2      0.3
    2      0.410D-02      0.216D-02      -289.90464828    808.460075    0.39267   -0.15660    1.39652    1      0.2      0.4
    3      0.138D-02      0.440D-03      -289.90832009    807.092031    0.39515   -0.15013    1.37627    2      0.2      0.6
    4      0.736D-03      0.193D-03      -289.90928625    807.607657    0.39620   -0.14593    1.35977    3      0.1      0.7
    5      0.317D-03      0.799D-04      -289.90941664    807.540764    0.41065   -0.15123    1.40292    4      0.2      0.9
    6      0.139D-03      0.852D-04      -289.90951198    807.475276    0.40415   -0.14524    1.37617    5      0.2      1.0
    7      0.877D-04      0.210D-04      -289.90952764    807.487587    0.40677   -0.14716    1.38437    6      0.1      1.2
    8      0.322D-04      0.767D-05      -289.90952980    807.489113    0.40708   -0.14633    1.38485    7      0.2      1.3
    9      0.137D-04      0.280D-05      -289.90953007    807.489415    0.40728   -0.14652    1.38516    8      0.2      1.5
   10      0.587D-05      0.126D-05      -289.90953012    807.488575    0.40728   -0.14649    1.38546    8      0.1      1.6
   11      0.209D-05      0.288D-06      -289.90953013    807.488592    0.40730   -0.14650    1.38548    8      0.2      1.8
   12      0.548D-06      0.101D-06      -289.90953013    807.488657    0.40729   -0.14651    1.38548    8      0.2      2.0
   13      0.246D-06      0.576D-07      -289.90953013    807.488604    0.40729   -0.14650    1.38548    7      0.2      2.1

 Final alpha occupancy:  28
 Final beta  occupancy:  27

 !UKS STATE  1.1 Energy              -289.909530127507
 Nuclear energy                       266.36079263
 One-electron energy                 -916.74881357
 Two-electron energy                  403.74430205
 Density functional                   -43.26581123     PBEX=-41.50719124 PBEC= -1.75861999
 Virial quotient                       -1.01213296
 !UKS STATE  1.1 Dipole moment          0.40729348    -0.14650224     1.38548143
 Dipole moment /Debye                   1.03516897    -0.37234717     3.52131190

 Orbital energies for positive spin:

         1.1          2.1          3.1          4.1          5.1          6.1          7.1          8.1          9.1         10.1
    -14.008857    -9.945506    -9.916599    -9.916383    -9.906908    -9.899206    -9.898927    -0.818171    -0.739444    -0.668274

        11.1         12.1         13.1         14.1         15.1         16.1         17.1         18.1         19.1         20.1
     -0.615751    -0.564916    -0.528204    -0.490481    -0.422246    -0.407436    -0.390805    -0.370654    -0.349641    -0.341960

        21.1         22.1         23.1         24.1         25.1         26.1         27.1         28.1         29.1         30.1
     -0.329817    -0.316695    -0.315015    -0.314832    -0.306718    -0.300985    -0.295007    -0.166837    -0.022049    -0.019550

 Orbital energies for negative spin:

         1.1          2.1          3.1          4.1          5.1          6.1          7.1          8.1          9.1         10.1
    -14.008855    -9.945347    -9.917068    -9.907631    -9.903915    -9.898794    -9.898759    -0.818097    -0.731702    -0.661270

        11.1         12.1         13.1         14.1         15.1         16.1         17.1         18.1         19.1         20.1
     -0.614885    -0.556877    -0.527454    -0.480492    -0.416740    -0.404752    -0.386556    -0.362132    -0.348957    -0.340894

        21.1         22.1         23.1         24.1         25.1         26.1         27.1         28.1         29.1         30.1
     -0.326922    -0.316607    -0.314891    -0.314738    -0.303315    -0.298871    -0.290429    -0.095617    -0.021851    -0.019360


 HOMO     28.1    -0.166837 =      -4.5399eV
 LUMO    -28.1    -0.095617 =      -2.6019eV
 LUMO-HOMO         0.071221 =       1.9380eV

 EXPECTATION VALUE OF S**2:             0.75333059

 Occupation number threshold for pseudo-canonical orbitals: 1.9990 (occupied), 0.0010 (virtual)

 Number of pseudo-canonical occupied orbitals per symmetry:   27
 Number of active natural orbitals per symmetry:               1

 Natural orbitals saved to record    2200.2 (Orbital set 3)

 Orbital spaces for UNO-CAS (Min. occupation: 0.020  Max. occupation: 1.980):

 Closed:       27
 Active:        1


 **********************************************************************************************************************************
 DATASETS  * FILE   NREC   LENGTH (MB)   RECORD NAMES
              1      19       31.21       500      610      700      900      950      970     1000      129      960     1100   
                                          VAR    BASINP    GEOM    SYMINP    ZMAT    AOBASIS   BASIS     P2S    ABASIS      S 
                                         1400     1410     1200     1210     1080     1600     1650     1700     1800   
                                           T        V       H0       H01     AOSYM     SMH    MOLCAS    OPER     GRID   

              2       6        7.61       700     1000      520     2100     1800     2200   
                                         GEOM     BASIS   MCVARS     RHF     GRID      UKS  

 PROGRAMS   *        TOTAL    DF-UKS     DF-HF       INT
 CPU TIMES  *         5.54      2.52      2.60      0.29
 REAL TIME  *         6.16 SEC
 DISK USED  *        38.89 MB (local),      155.54 MB (total)
 SF USED    *        30.29 MB
 GA USED    *         3.27 MB       (max)       2.09 MB       (current)
 **********************************************************************************************************************************


 PROGRAM * OPT (Geometry optimization)     Authors: F. Eckert and H.-J. Werner


 BFGS update of hessian


********** USER DEFINED INT/FIX/CONSTRAINTS ****************

List of primitive internal coordinates

     N      Name     Type   Natoms   Atom list

     1    Bo0001     Bond        2      H11  C6  
     2    Bo0002     Bond        2      H11  C17 
     3    An0001     Angle       3      C6   H11  C17 

List of user defined internal/fixed coordinates and constraints

- - - - - - - - - - - - - - - - - - - - - - - - - - - - - - - - - 
    N      Name   Type      Pname     Coeff       Value   Unit
- - - - - - - - - - - - - - - - - - - - - - - - - - - - - - - - - 
    1    Cns001    Con     Bo0001     1.000     2.00000 Angstrom
- - - - - - - - - - - - - - - - - - - - - - - - - - - - - - - - - 
    2    Cns002    Con     Bo0002     1.000     2.40000 Angstrom
- - - - - - - - - - - - - - - - - - - - - - - - - - - - - - - - - 
    3    Cns003    Con     An0001     1.000   180.00000   Degree
- - - - - - - - - - - - - - - - - - - - - - - - - - - - - - - - - 


******************************************************************



 *** Long output written to logfile /mnt/storage/home/lb17101/optimizations/11/11_2.00_2.40.log ***


 Geometry optimization using default procedure for command CF-UKS-SCF

 Geometry written to block  1 of record 700

 SLAPAF optimizer by R. Lindh and Ignacio F. Galvan entered

 Constraints section
ConstraintsConstraintsConstraintsConstraintsConstraintsConstraintsConstraintsConstraintsConstraintsConstraints
ConstraintsConstraintsConstraintsConstraintsConstraintsConstraintsConstraintsConstraintsConstraintsConstraints
Constraints                                                                                        Constraints
Constraints                                 C O N S T R A I N T S                                  Constraints
Constraints                                                                                        Constraints

************************************************************************************************************************
BO0001 = BOND       H11   C6
BO0002 = BOND       H11   C17
AN0001 = ANGLE      C6    H11   C17
VALUES
BO0001 =      2.00000000 ANGSTROM
BO0002 =      2.40000000 ANGSTROM
AN0001 =    180.00000000 DEGREE
************************************************************************************************************************


 *************************************************************
 * Values of the primitive constraints                       *
 *************************************************************
 BO0001   : Bond Length=  2.999786 / Angstrom  5.668774 / bohr
 BO0002   : Bond Length=  1.099993 / Angstrom  2.078686 / bohr
 AN0001   : Angle=      175.7129   / Degree    3.066769 / rad

 *******************************************
 * Values of the constraints   / au or rad *
 *******************************************
   Label        C         C0
 Cns001      5.668774  3.779452
 Cns002      2.078686  4.535343
 Cns003      3.066769  3.141593


 ITER.   ENERGY(OLD)    ENERGY(NEW)      DE          GRADMAX     GRADNORM    GRADRMS     STEPMAX     STEPLEN     STEPRMS   CPU-time
   1  -289.90953013  -289.90908318     0.00044694  0.00531371  0.00802366  0.00106276  0.43900845  0.93703345  0.01643918      3.10

 Constraints section
ConstraintsConstraintsConstraintsConstraintsConstraintsConstraintsConstraintsConstraintsConstraintsConstraints
ConstraintsConstraintsConstraintsConstraintsConstraintsConstraintsConstraintsConstraintsConstraintsConstraints
Constraints                                                                                        Constraints
Constraints                                 C O N S T R A I N T S                                  Constraints
Constraints                                                                                        Constraints

************************************************************************************************************************
BO0001 = BOND       H11   C6
BO0002 = BOND       H11   C17
AN0001 = ANGLE      C6    H11   C17
VALUES
BO0001 =      2.00000000 ANGSTROM
BO0002 =      2.40000000 ANGSTROM
AN0001 =    180.00000000 DEGREE
************************************************************************************************************************


 *************************************************************
 * Values of the primitive constraints                       *
 *************************************************************
 BO0001   : Bond Length=  2.995527 / Angstrom  5.660726 / bohr
 BO0002   : Bond Length=  1.105520 / Angstrom  2.089130 / bohr
 AN0001   : Angle=      175.7334   / Degree    3.067126 / rad

 *******************************************
 * Values of the constraints   / au or rad *
 *******************************************
   Label        C         C0
 Cns001      5.660726  3.779452
 Cns002      2.089130  4.535343
 Cns003      3.067126  3.141593

   2  -289.90908318  -289.90767513     0.00140805  0.01129026  0.01625314  0.00215278  0.51638958  1.11187878  0.01950665      6.20

 Constraints section
ConstraintsConstraintsConstraintsConstraintsConstraintsConstraintsConstraintsConstraintsConstraintsConstraints
ConstraintsConstraintsConstraintsConstraintsConstraintsConstraintsConstraintsConstraintsConstraintsConstraints
Constraints                                                                                        Constraints
Constraints                                 C O N S T R A I N T S                                  Constraints
Constraints                                                                                        Constraints

************************************************************************************************************************
BO0001 = BOND       H11   C6
BO0002 = BOND       H11   C17
AN0001 = ANGLE      C6    H11   C17
VALUES
BO0001 =      2.00000000 ANGSTROM
BO0002 =      2.40000000 ANGSTROM
AN0001 =    180.00000000 DEGREE
************************************************************************************************************************


 *************************************************************
 * Values of the primitive constraints                       *
 *************************************************************
 BO0001   : Bond Length=  2.987352 / Angstrom  5.645277 / bohr
 BO0002   : Bond Length=  1.116129 / Angstrom  2.109179 / bohr
 AN0001   : Angle=      175.7723   / Degree    3.067806 / rad

 *******************************************
 * Values of the constraints   / au or rad *
 *******************************************
   Label        C         C0
 Cns001      5.645277  3.779452
 Cns002      2.109179  4.535343
 Cns003      3.067806  3.141593

   3  -289.90767513  -289.90692426     0.00075087  0.01570336  0.02475828  0.00327931  0.10046715  0.22277964  0.00390841      9.22

 Constraints section
ConstraintsConstraintsConstraintsConstraintsConstraintsConstraintsConstraintsConstraintsConstraintsConstraints
ConstraintsConstraintsConstraintsConstraintsConstraintsConstraintsConstraintsConstraintsConstraintsConstraints
Constraints                                                                                        Constraints
Constraints                                 C O N S T R A I N T S                                  Constraints
Constraints                                                                                        Constraints

************************************************************************************************************************
BO0001 = BOND       H11   C6
BO0002 = BOND       H11   C17
AN0001 = ANGLE      C6    H11   C17
VALUES
BO0001 =      2.00000000 ANGSTROM
BO0002 =      2.40000000 ANGSTROM
AN0001 =    180.00000000 DEGREE
************************************************************************************************************************


 *************************************************************
 * Values of the primitive constraints                       *
 *************************************************************
 BO0001   : Bond Length=  2.976897 / Angstrom  5.625520 / bohr
 BO0002   : Bond Length=  1.129724 / Angstrom  2.134869 / bohr
 AN0001   : Angle=      175.8176   / Degree    3.068596 / rad

 *******************************************
 * Values of the constraints   / au or rad *
 *******************************************
   Label        C         C0
 Cns001      5.625520  3.779452
 Cns002      2.134869  4.535343
 Cns003      3.068596  3.141593

   4  -289.90692426  -289.90629682     0.00062744  0.02370948  0.03531868  0.00467807  0.10431387  0.23948267  0.00420145     12.21

 Constraints section
ConstraintsConstraintsConstraintsConstraintsConstraintsConstraintsConstraintsConstraintsConstraintsConstraints
ConstraintsConstraintsConstraintsConstraintsConstraintsConstraintsConstraintsConstraintsConstraintsConstraints
Constraints                                                                                        Constraints
Constraints                                 C O N S T R A I N T S                                  Constraints
Constraints                                                                                        Constraints

************************************************************************************************************************
BO0001 = BOND       H11   C6
BO0002 = BOND       H11   C17
AN0001 = ANGLE      C6    H11   C17
VALUES
BO0001 =      2.00000000 ANGSTROM
BO0002 =      2.40000000 ANGSTROM
AN0001 =    180.00000000 DEGREE
************************************************************************************************************************


 *************************************************************
 * Values of the primitive constraints                       *
 *************************************************************
 BO0001   : Bond Length=  2.972078 / Angstrom  5.616414 / bohr
 BO0002   : Bond Length=  1.135990 / Angstrom  2.146710 / bohr
 AN0001   : Angle=      175.8387   / Degree    3.068965 / rad

 *******************************************
 * Values of the constraints   / au or rad *
 *******************************************
   Label        C         C0
 Cns001      5.616414  3.779452
 Cns002      2.146710  4.535343
 Cns003      3.068965  3.141593

   5  -289.90629682  -289.90541111     0.00088571  0.02522221  0.03875773  0.00513359  0.14896850  0.34327427  0.00602236     15.22

 Constraints section
ConstraintsConstraintsConstraintsConstraintsConstraintsConstraintsConstraintsConstraintsConstraintsConstraints
ConstraintsConstraintsConstraintsConstraintsConstraintsConstraintsConstraintsConstraintsConstraintsConstraints
Constraints                                                                                        Constraints
Constraints                                 C O N S T R A I N T S                                  Constraints
Constraints                                                                                        Constraints

************************************************************************************************************************
BO0001 = BOND       H11   C6
BO0002 = BOND       H11   C17
AN0001 = ANGLE      C6    H11   C17
VALUES
BO0001 =      2.00000000 ANGSTROM
BO0002 =      2.40000000 ANGSTROM
AN0001 =    180.00000000 DEGREE
************************************************************************************************************************


 *************************************************************
 * Values of the primitive constraints                       *
 *************************************************************
 BO0001   : Bond Length=  2.966893 / Angstrom  5.606615 / bohr
 BO0002   : Bond Length=  1.142732 / Angstrom  2.159450 / bohr
 AN0001   : Angle=      175.8615   / Degree    3.069362 / rad

 *******************************************
 * Values of the constraints   / au or rad *
 *******************************************
   Label        C         C0
 Cns001      5.606615  3.779452
 Cns002      2.159450  4.535343
 Cns003      3.069362  3.141593

   6  -289.90541111  -289.90451082     0.00090029  0.03129511  0.04562878  0.00604368  0.14770396  0.35105529  0.00615886     18.21

 Constraints section
ConstraintsConstraintsConstraintsConstraintsConstraintsConstraintsConstraintsConstraintsConstraintsConstraints
ConstraintsConstraintsConstraintsConstraintsConstraintsConstraintsConstraintsConstraintsConstraintsConstraints
Constraints                                                                                        Constraints
Constraints                                 C O N S T R A I N T S                                  Constraints
Constraints                                                                                        Constraints

************************************************************************************************************************
BO0001 = BOND       H11   C6
BO0002 = BOND       H11   C17
AN0001 = ANGLE      C6    H11   C17
VALUES
BO0001 =      2.00000000 ANGSTROM
BO0002 =      2.40000000 ANGSTROM
AN0001 =    180.00000000 DEGREE
************************************************************************************************************************


 *************************************************************
 * Values of the primitive constraints                       *
 *************************************************************
 BO0001   : Bond Length=  2.961423 / Angstrom  5.596278 / bohr
 BO0002   : Bond Length=  1.149845 / Angstrom  2.172891 / bohr
 AN0001   : Angle=      175.8852   / Degree    3.069776 / rad

 *******************************************
 * Values of the constraints   / au or rad *
 *******************************************
   Label        C         C0
 Cns001      5.596278  3.779452
 Cns002      2.172891  4.535343
 Cns003      3.069776  3.141593

   7  -289.90451082  -289.90322529     0.00128552  0.03605772  0.05165849  0.00684233  0.20137440  0.48060983  0.00843175     21.24

 Constraints section
ConstraintsConstraintsConstraintsConstraintsConstraintsConstraintsConstraintsConstraintsConstraintsConstraints
ConstraintsConstraintsConstraintsConstraintsConstraintsConstraintsConstraintsConstraintsConstraintsConstraints
Constraints                                                                                        Constraints
Constraints                                 C O N S T R A I N T S                                  Constraints
Constraints                                                                                        Constraints

************************************************************************************************************************
BO0001 = BOND       H11   C6
BO0002 = BOND       H11   C17
AN0001 = ANGLE      C6    H11   C17
VALUES
BO0001 =      2.00000000 ANGSTROM
BO0002 =      2.40000000 ANGSTROM
AN0001 =    180.00000000 DEGREE
************************************************************************************************************************


 *************************************************************
 * Values of the primitive constraints                       *
 *************************************************************
 BO0001   : Bond Length=  2.954810 / Angstrom  5.583782 / bohr
 BO0002   : Bond Length=  1.158441 / Angstrom  2.189137 / bohr
 AN0001   : Angle=      175.9145   / Degree    3.070287 / rad

 *******************************************
 * Values of the constraints   / au or rad *
 *******************************************
   Label        C         C0
 Cns001      5.583782  3.779452
 Cns002      2.189137  4.535343
 Cns003      3.070287  3.141593

   8  -289.90322529  -289.90225610     0.00096919  0.03917022  0.05682944  0.00752724  0.14227976  0.33934259  0.00595338     24.28

 Constraints section
ConstraintsConstraintsConstraintsConstraintsConstraintsConstraintsConstraintsConstraintsConstraintsConstraints
ConstraintsConstraintsConstraintsConstraintsConstraintsConstraintsConstraintsConstraintsConstraintsConstraints
Constraints                                                                                        Constraints
Constraints                                 C O N S T R A I N T S                                  Constraints
Constraints                                                                                        Constraints

************************************************************************************************************************
BO0001 = BOND       H11   C6
BO0002 = BOND       H11   C17
AN0001 = ANGLE      C6    H11   C17
VALUES
BO0001 =      2.00000000 ANGSTROM
BO0002 =      2.40000000 ANGSTROM
AN0001 =    180.00000000 DEGREE
************************************************************************************************************************


 *************************************************************
 * Values of the primitive constraints                       *
 *************************************************************
 BO0001   : Bond Length=  2.950007 / Angstrom  5.574705 / bohr
 BO0002   : Bond Length=  1.164687 / Angstrom  2.200939 / bohr
 AN0001   : Angle=      175.9358   / Degree    3.070659 / rad

 *******************************************
 * Values of the constraints   / au or rad *
 *******************************************
   Label        C         C0
 Cns001      5.574705  3.779452
 Cns002      2.200939  4.535343
 Cns003      3.070659  3.141593

   9  -289.90225610  -289.90131851     0.00093760  0.04242903  0.06124716  0.00811238  0.13439123  0.33139493  0.00581395     27.28

 Constraints section
ConstraintsConstraintsConstraintsConstraintsConstraintsConstraintsConstraintsConstraintsConstraintsConstraints
ConstraintsConstraintsConstraintsConstraintsConstraintsConstraintsConstraintsConstraintsConstraintsConstraints
Constraints                                                                                        Constraints
Constraints                                 C O N S T R A I N T S                                  Constraints
Constraints                                                                                        Constraints

************************************************************************************************************************
BO0001 = BOND       H11   C6
BO0002 = BOND       H11   C17
AN0001 = ANGLE      C6    H11   C17
VALUES
BO0001 =      2.00000000 ANGSTROM
BO0002 =      2.40000000 ANGSTROM
AN0001 =    180.00000000 DEGREE
************************************************************************************************************************


 *************************************************************
 * Values of the primitive constraints                       *
 *************************************************************
 BO0001   : Bond Length=  2.945091 / Angstrom  5.565414 / bohr
 BO0002   : Bond Length=  1.171079 / Angstrom  2.213018 / bohr
 AN0001   : Angle=      175.9574   / Degree    3.071036 / rad

 *******************************************
 * Values of the constraints   / au or rad *
 *******************************************
   Label        C         C0
 Cns001      5.565414  3.779452
 Cns002      2.213018  4.535343
 Cns003      3.071036  3.141593

  10  -289.90131851  -289.90027017     0.00104833  0.04212055  0.06300151  0.00834475  0.13699529  0.34553251  0.00606197     30.26

 Constraints section
ConstraintsConstraintsConstraintsConstraintsConstraintsConstraintsConstraintsConstraintsConstraintsConstraints
ConstraintsConstraintsConstraintsConstraintsConstraintsConstraintsConstraintsConstraintsConstraintsConstraints
Constraints                                                                                        Constraints
Constraints                                 C O N S T R A I N T S                                  Constraints
Constraints                                                                                        Constraints

************************************************************************************************************************
BO0001 = BOND       H11   C6
BO0002 = BOND       H11   C17
AN0001 = ANGLE      C6    H11   C17
VALUES
BO0001 =      2.00000000 ANGSTROM
BO0002 =      2.40000000 ANGSTROM
AN0001 =    180.00000000 DEGREE
************************************************************************************************************************


 *************************************************************
 * Values of the primitive constraints                       *
 *************************************************************
 BO0001   : Bond Length=  2.940021 / Angstrom  5.555834 / bohr
 BO0002   : Bond Length=  1.177670 / Angstrom  2.225474 / bohr
 AN0001   : Angle=      175.9793   / Degree    3.071418 / rad

 *******************************************
 * Values of the constraints   / au or rad *
 *******************************************
   Label        C         C0
 Cns001      5.555834  3.779452
 Cns002      2.225474  4.535343
 Cns003      3.071418  3.141593

  11  -289.90027017  -289.89919945     0.00107072  0.04849014  0.06974410  0.00923783  0.13918160  0.36213231  0.00635320     33.19

 Constraints section
ConstraintsConstraintsConstraintsConstraintsConstraintsConstraintsConstraintsConstraintsConstraintsConstraints
ConstraintsConstraintsConstraintsConstraintsConstraintsConstraintsConstraintsConstraintsConstraintsConstraints
Constraints                                                                                        Constraints
Constraints                                 C O N S T R A I N T S                                  Constraints
Constraints                                                                                        Constraints

************************************************************************************************************************
BO0001 = BOND       H11   C6
BO0002 = BOND       H11   C17
AN0001 = ANGLE      C6    H11   C17
VALUES
BO0001 =      2.00000000 ANGSTROM
BO0002 =      2.40000000 ANGSTROM
AN0001 =    180.00000000 DEGREE
************************************************************************************************************************


 *************************************************************
 * Values of the primitive constraints                       *
 *************************************************************
 BO0001   : Bond Length=  2.934817 / Angstrom  5.546001 / bohr
 BO0002   : Bond Length=  1.184436 / Angstrom  2.238259 / bohr
 AN0001   : Angle=      176.0019   / Degree    3.071812 / rad

 *******************************************
 * Values of the constraints   / au or rad *
 *******************************************
   Label        C         C0
 Cns001      5.546001  3.779452
 Cns002      2.238259  4.535343
 Cns003      3.071812  3.141593

  12  -289.89919945  -289.89802894     0.00117051  0.05089646  0.07345629  0.00972952  0.14687299  0.39058669  0.00685240     36.16

 Constraints section
ConstraintsConstraintsConstraintsConstraintsConstraintsConstraintsConstraintsConstraintsConstraintsConstraints
ConstraintsConstraintsConstraintsConstraintsConstraintsConstraintsConstraintsConstraintsConstraintsConstraints
Constraints                                                                                        Constraints
Constraints                                 C O N S T R A I N T S                                  Constraints
Constraints                                                                                        Constraints

************************************************************************************************************************
BO0001 = BOND       H11   C6
BO0002 = BOND       H11   C17
AN0001 = ANGLE      C6    H11   C17
VALUES
BO0001 =      2.00000000 ANGSTROM
BO0002 =      2.40000000 ANGSTROM
AN0001 =    180.00000000 DEGREE
************************************************************************************************************************


 *************************************************************
 * Values of the primitive constraints                       *
 *************************************************************
 BO0001   : Bond Length=  2.929183 / Angstrom  5.535354 / bohr
 BO0002   : Bond Length=  1.191761 / Angstrom  2.252102 / bohr
 AN0001   : Angle=      176.0270   / Degree    3.072251 / rad

 *******************************************
 * Values of the constraints   / au or rad *
 *******************************************
   Label        C         C0
 Cns001      5.535354  3.779452
 Cns002      2.252102  4.535343
 Cns003      3.072251  3.141593

  13  -289.89802894  -289.89680427     0.00122467  0.05476673  0.07837104  0.01038050  0.14692705  0.40681277  0.00713707     39.24

 Constraints section
ConstraintsConstraintsConstraintsConstraintsConstraintsConstraintsConstraintsConstraintsConstraintsConstraints
ConstraintsConstraintsConstraintsConstraintsConstraintsConstraintsConstraintsConstraintsConstraintsConstraints
Constraints                                                                                        Constraints
Constraints                                 C O N S T R A I N T S                                  Constraints
Constraints                                                                                        Constraints

************************************************************************************************************************
BO0001 = BOND       H11   C6
BO0002 = BOND       H11   C17
AN0001 = ANGLE      C6    H11   C17
VALUES
BO0001 =      2.00000000 ANGSTROM
BO0002 =      2.40000000 ANGSTROM
AN0001 =    180.00000000 DEGREE
************************************************************************************************************************


 *************************************************************
 * Values of the primitive constraints                       *
 *************************************************************
 BO0001   : Bond Length=  2.923282 / Angstrom  5.524202 / bohr
 BO0002   : Bond Length=  1.199434 / Angstrom  2.266602 / bohr
 AN0001   : Angle=      176.0532   / Degree    3.072709 / rad

 *******************************************
 * Values of the constraints   / au or rad *
 *******************************************
   Label        C         C0
 Cns001      5.524202  3.779452
 Cns002      2.266602  4.535343
 Cns003      3.072709  3.141593

  14  -289.89680427  -289.89562306     0.00118122  0.05751115  0.08237719  0.01091112  0.14382473  0.40839047  0.00716475     42.20

 Constraints section
ConstraintsConstraintsConstraintsConstraintsConstraintsConstraintsConstraintsConstraintsConstraintsConstraints
ConstraintsConstraintsConstraintsConstraintsConstraintsConstraintsConstraintsConstraintsConstraintsConstraints
Constraints                                                                                        Constraints
Constraints                                 C O N S T R A I N T S                                  Constraints
Constraints                                                                                        Constraints

************************************************************************************************************************
BO0001 = BOND       H11   C6
BO0002 = BOND       H11   C17
AN0001 = ANGLE      C6    H11   C17
VALUES
BO0001 =      2.00000000 ANGSTROM
BO0002 =      2.40000000 ANGSTROM
AN0001 =    180.00000000 DEGREE
************************************************************************************************************************


 *************************************************************
 * Values of the primitive constraints                       *
 *************************************************************
 BO0001   : Bond Length=  2.917346 / Angstrom  5.512986 / bohr
 BO0002   : Bond Length=  1.207151 / Angstrom  2.281185 / bohr
 AN0001   : Angle=      176.0791   / Degree    3.073161 / rad

 *******************************************
 * Values of the constraints   / au or rad *
 *******************************************
   Label        C         C0
 Cns001      5.512986  3.779452
 Cns002      2.281185  4.535343
 Cns003      3.073161  3.141593

  15  -289.89562306  -289.89462991     0.00099315  0.05951215  0.08574797  0.01135760  0.13972599  0.38054157  0.00667617     45.11

 Constraints section
ConstraintsConstraintsConstraintsConstraintsConstraintsConstraintsConstraintsConstraintsConstraintsConstraints
ConstraintsConstraintsConstraintsConstraintsConstraintsConstraintsConstraintsConstraintsConstraintsConstraints
Constraints                                                                                        Constraints
Constraints                                 C O N S T R A I N T S                                  Constraints
Constraints                                                                                        Constraints

************************************************************************************************************************
BO0001 = BOND       H11   C6
BO0002 = BOND       H11   C17
AN0001 = ANGLE      C6    H11   C17
VALUES
BO0001 =      2.00000000 ANGSTROM
BO0002 =      2.40000000 ANGSTROM
AN0001 =    180.00000000 DEGREE
************************************************************************************************************************


 *************************************************************
 * Values of the primitive constraints                       *
 *************************************************************
 BO0001   : Bond Length=  2.911933 / Angstrom  5.502756 / bohr
 BO0002   : Bond Length=  1.214189 / Angstrom  2.294485 / bohr
 AN0001   : Angle=      176.1032   / Degree    3.073580 / rad

 *******************************************
 * Values of the constraints   / au or rad *
 *******************************************
   Label        C         C0
 Cns001      5.502756  3.779452
 Cns002      2.294485  4.535343
 Cns003      3.073580  3.141593

  16  -289.89462991  -289.89360390     0.00102601  0.06224944  0.08948340  0.01185237  0.14108467  0.37251551  0.00653536     48.13

 Constraints section
ConstraintsConstraintsConstraintsConstraintsConstraintsConstraintsConstraintsConstraintsConstraintsConstraints
ConstraintsConstraintsConstraintsConstraintsConstraintsConstraintsConstraintsConstraintsConstraintsConstraints
Constraints                                                                                        Constraints
Constraints                                 C O N S T R A I N T S                                  Constraints
Constraints                                                                                        Constraints

************************************************************************************************************************
BO0001 = BOND       H11   C6
BO0002 = BOND       H11   C17
AN0001 = ANGLE      C6    H11   C17
VALUES
BO0001 =      2.00000000 ANGSTROM
BO0002 =      2.40000000 ANGSTROM
AN0001 =    180.00000000 DEGREE
************************************************************************************************************************


 *************************************************************
 * Values of the primitive constraints                       *
 *************************************************************
 BO0001   : Bond Length=  2.906671 / Angstrom  5.492812 / bohr
 BO0002   : Bond Length=  1.221031 / Angstrom  2.307414 / bohr
 AN0001   : Angle=      176.1264   / Degree    3.073986 / rad

 *******************************************
 * Values of the constraints   / au or rad *
 *******************************************
   Label        C         C0
 Cns001      5.492812  3.779452
 Cns002      2.307414  4.535343
 Cns003      3.073986  3.141593

  17  -289.89360390  -289.89267328     0.00093062  0.06430245  0.09260866  0.01226632  0.14230818  0.36513851  0.00640594     51.24

 Constraints section
ConstraintsConstraintsConstraintsConstraintsConstraintsConstraintsConstraintsConstraintsConstraintsConstraints
ConstraintsConstraintsConstraintsConstraintsConstraintsConstraintsConstraintsConstraintsConstraintsConstraints
Constraints                                                                                        Constraints
Constraints                                 C O N S T R A I N T S                                  Constraints
Constraints                                                                                        Constraints

************************************************************************************************************************
BO0001 = BOND       H11   C6
BO0002 = BOND       H11   C17
AN0001 = ANGLE      C6    H11   C17
VALUES
BO0001 =      2.00000000 ANGSTROM
BO0002 =      2.40000000 ANGSTROM
AN0001 =    180.00000000 DEGREE
************************************************************************************************************************


 *************************************************************
 * Values of the primitive constraints                       *
 *************************************************************
 BO0001   : Bond Length=  2.901548 / Angstrom  5.483130 / bohr
 BO0002   : Bond Length=  1.227692 / Angstrom  2.320002 / bohr
 AN0001   : Angle=      176.1489   / Degree    3.074379 / rad

 *******************************************
 * Values of the constraints   / au or rad *
 *******************************************
   Label        C         C0
 Cns001      5.483130  3.779452
 Cns002      2.320002  4.535343
 Cns003      3.074379  3.141593

  18  -289.89267328  -289.89183102     0.00084226  0.06654633  0.09578825  0.01268746  0.14124696  0.35244571  0.00618326     54.39

 Constraints section
ConstraintsConstraintsConstraintsConstraintsConstraintsConstraintsConstraintsConstraintsConstraintsConstraints
ConstraintsConstraintsConstraintsConstraintsConstraintsConstraintsConstraintsConstraintsConstraintsConstraints
Constraints                                                                                        Constraints
Constraints                                 C O N S T R A I N T S                                  Constraints
Constraints                                                                                        Constraints

************************************************************************************************************************
BO0001 = BOND       H11   C6
BO0002 = BOND       H11   C17
AN0001 = ANGLE      C6    H11   C17
VALUES
BO0001 =      2.00000000 ANGSTROM
BO0002 =      2.40000000 ANGSTROM
AN0001 =    180.00000000 DEGREE
************************************************************************************************************************


 *************************************************************
 * Values of the primitive constraints                       *
 *************************************************************
 BO0001   : Bond Length=  2.896612 / Angstrom  5.473803 / bohr
 BO0002   : Bond Length=  1.234109 / Angstrom  2.332129 / bohr
 AN0001   : Angle=      176.1705   / Degree    3.074756 / rad

 *******************************************
 * Values of the constraints   / au or rad *
 *******************************************
   Label        C         C0
 Cns001      5.473803  3.779452
 Cns002      2.332129  4.535343
 Cns003      3.074756  3.141593

  19  -289.89183102  -289.89102752     0.00080350  0.06853046  0.09865972  0.01306780  0.14204346  0.34630842  0.00607559     57.40

 Constraints section
ConstraintsConstraintsConstraintsConstraintsConstraintsConstraintsConstraintsConstraintsConstraintsConstraints
ConstraintsConstraintsConstraintsConstraintsConstraintsConstraintsConstraintsConstraintsConstraintsConstraints
Constraints                                                                                        Constraints
Constraints                                 C O N S T R A I N T S                                  Constraints
Constraints                                                                                        Constraints

************************************************************************************************************************
BO0001 = BOND       H11   C6
BO0002 = BOND       H11   C17
AN0001 = ANGLE      C6    H11   C17
VALUES
BO0001 =      2.00000000 ANGSTROM
BO0002 =      2.40000000 ANGSTROM
AN0001 =    180.00000000 DEGREE
************************************************************************************************************************


 *************************************************************
 * Values of the primitive constraints                       *
 *************************************************************
 BO0001   : Bond Length=  2.891730 / Angstrom  5.464577 / bohr
 BO0002   : Bond Length=  1.240458 / Angstrom  2.344125 / bohr
 AN0001   : Angle=      176.1919   / Degree    3.075128 / rad

 *******************************************
 * Values of the constraints   / au or rad *
 *******************************************
   Label        C         C0
 Cns001      5.464577  3.779452
 Cns002      2.344125  4.535343
 Cns003      3.075128  3.141593

  20  -289.89102752  -289.89023916     0.00078835  0.07018184  0.10121405  0.01340613  0.14269294  0.34066749  0.00597662     60.59

 Constraints section
ConstraintsConstraintsConstraintsConstraintsConstraintsConstraintsConstraintsConstraintsConstraintsConstraints
ConstraintsConstraintsConstraintsConstraintsConstraintsConstraintsConstraintsConstraintsConstraintsConstraints
Constraints                                                                                        Constraints
Constraints                                 C O N S T R A I N T S                                  Constraints
Constraints                                                                                        Constraints

************************************************************************************************************************
BO0001 = BOND       H11   C6
BO0002 = BOND       H11   C17
AN0001 = ANGLE      C6    H11   C17
VALUES
BO0001 =      2.00000000 ANGSTROM
BO0002 =      2.40000000 ANGSTROM
AN0001 =    180.00000000 DEGREE
************************************************************************************************************************


 *************************************************************
 * Values of the primitive constraints                       *
 *************************************************************
 BO0001   : Bond Length=  2.886883 / Angstrom  5.455418 / bohr
 BO0002   : Bond Length=  1.246759 / Angstrom  2.356034 / bohr
 AN0001   : Angle=      176.2130   / Degree    3.075497 / rad

 *******************************************
 * Values of the constraints   / au or rad *
 *******************************************
   Label        C         C0
 Cns001      5.455418  3.779452
 Cns002      2.356034  4.535343
 Cns003      3.075497  3.141593

  21  -289.89023916  -289.88943538     0.00080379  0.07191339  0.10376508  0.01374402  0.14345999  0.33591646  0.00589327     63.71

 Constraints section
ConstraintsConstraintsConstraintsConstraintsConstraintsConstraintsConstraintsConstraintsConstraintsConstraints
ConstraintsConstraintsConstraintsConstraintsConstraintsConstraintsConstraintsConstraintsConstraintsConstraints
Constraints                                                                                        Constraints
Constraints                                 C O N S T R A I N T S                                  Constraints
Constraints                                                                                        Constraints

************************************************************************************************************************
BO0001 = BOND       H11   C6
BO0002 = BOND       H11   C17
AN0001 = ANGLE      C6    H11   C17
VALUES
BO0001 =      2.00000000 ANGSTROM
BO0002 =      2.40000000 ANGSTROM
AN0001 =    180.00000000 DEGREE
************************************************************************************************************************


 *************************************************************
 * Values of the primitive constraints                       *
 *************************************************************
 BO0001   : Bond Length=  2.882060 / Angstrom  5.446304 / bohr
 BO0002   : Bond Length=  1.253030 / Angstrom  2.367883 / bohr
 AN0001   : Angle=      176.2340   / Degree    3.075864 / rad

 *******************************************
 * Values of the constraints   / au or rad *
 *******************************************
   Label        C         C0
 Cns001      5.446304  3.779452
 Cns002      2.367883  4.535343
 Cns003      3.075864  3.141593

  22  -289.88943538  -289.88864084     0.00079454  0.07348108  0.10612850  0.01405706  0.14406881  0.33085761  0.00580452     66.78

 Constraints section
ConstraintsConstraintsConstraintsConstraintsConstraintsConstraintsConstraintsConstraintsConstraintsConstraints
ConstraintsConstraintsConstraintsConstraintsConstraintsConstraintsConstraintsConstraintsConstraintsConstraints
Constraints                                                                                        Constraints
Constraints                                 C O N S T R A I N T S                                  Constraints
Constraints                                                                                        Constraints

************************************************************************************************************************
BO0001 = BOND       H11   C6
BO0002 = BOND       H11   C17
AN0001 = ANGLE      C6    H11   C17
VALUES
BO0001 =      2.00000000 ANGSTROM
BO0002 =      2.40000000 ANGSTROM
AN0001 =    180.00000000 DEGREE
************************************************************************************************************************


 *************************************************************
 * Values of the primitive constraints                       *
 *************************************************************
 BO0001   : Bond Length=  2.877316 / Angstrom  5.437339 / bohr
 BO0002   : Bond Length=  1.259198 / Angstrom  2.379540 / bohr
 AN0001   : Angle=      176.2547   / Degree    3.076224 / rad

 *******************************************
 * Values of the constraints   / au or rad *
 *******************************************
   Label        C         C0
 Cns001      5.437339  3.779452
 Cns002      2.379540  4.535343
 Cns003      3.076224  3.141593

  23  -289.88864084  -289.88785583     0.00078501  0.07500852  0.10840653  0.01435880  0.14342147  0.32842993  0.00576193     69.88

 Constraints section
ConstraintsConstraintsConstraintsConstraintsConstraintsConstraintsConstraintsConstraintsConstraintsConstraints
ConstraintsConstraintsConstraintsConstraintsConstraintsConstraintsConstraintsConstraintsConstraintsConstraints
Constraints                                                                                        Constraints
Constraints                                 C O N S T R A I N T S                                  Constraints
Constraints                                                                                        Constraints

************************************************************************************************************************
BO0001 = BOND       H11   C6
BO0002 = BOND       H11   C17
AN0001 = ANGLE      C6    H11   C17
VALUES
BO0001 =      2.00000000 ANGSTROM
BO0002 =      2.40000000 ANGSTROM
AN0001 =    180.00000000 DEGREE
************************************************************************************************************************


 *************************************************************
 * Values of the primitive constraints                       *
 *************************************************************
 BO0001   : Bond Length=  2.872610 / Angstrom  5.428447 / bohr
 BO0002   : Bond Length=  1.265316 / Angstrom  2.391101 / bohr
 AN0001   : Angle=      176.2751   / Degree    3.076580 / rad

 *******************************************
 * Values of the constraints   / au or rad *
 *******************************************
   Label        C         C0
 Cns001      5.428447  3.779452
 Cns002      2.391101  4.535343
 Cns003      3.076580  3.141593

  24  -289.88785583  -289.88715688     0.00069895  0.07654422  0.11062718  0.01465293  0.14418392  0.32522263  0.00570566     72.95

 Constraints section
ConstraintsConstraintsConstraintsConstraintsConstraintsConstraintsConstraintsConstraintsConstraintsConstraints
ConstraintsConstraintsConstraintsConstraintsConstraintsConstraintsConstraintsConstraintsConstraintsConstraints
Constraints                                                                                        Constraints
Constraints                                 C O N S T R A I N T S                                  Constraints
Constraints                                                                                        Constraints

************************************************************************************************************************
BO0001 = BOND       H11   C6
BO0002 = BOND       H11   C17
AN0001 = ANGLE      C6    H11   C17
VALUES
BO0001 =      2.00000000 ANGSTROM
BO0002 =      2.40000000 ANGSTROM
AN0001 =    180.00000000 DEGREE
************************************************************************************************************************


 *************************************************************
 * Values of the primitive constraints                       *
 *************************************************************
 BO0001   : Bond Length=  2.867899 / Angstrom  5.419543 / bohr
 BO0002   : Bond Length=  1.271442 / Angstrom  2.402677 / bohr
 AN0001   : Angle=      176.2955   / Degree    3.076937 / rad

 *******************************************
 * Values of the constraints   / au or rad *
 *******************************************
   Label        C         C0
 Cns001      5.419543  3.779452
 Cns002      2.402677  4.535343
 Cns003      3.076937  3.141593

  25  -289.88715688  -289.88631801     0.00083887  0.07790877  0.11265189  0.01492111  0.14085216  0.31593173  0.00554266     76.09

 Constraints section
ConstraintsConstraintsConstraintsConstraintsConstraintsConstraintsConstraintsConstraintsConstraintsConstraints
ConstraintsConstraintsConstraintsConstraintsConstraintsConstraintsConstraintsConstraintsConstraintsConstraints
Constraints                                                                                        Constraints
Constraints                                 C O N S T R A I N T S                                  Constraints
Constraints                                                                                        Constraints

************************************************************************************************************************
BO0001 = BOND       H11   C6
BO0002 = BOND       H11   C17
AN0001 = ANGLE      C6    H11   C17
VALUES
BO0001 =      2.00000000 ANGSTROM
BO0002 =      2.40000000 ANGSTROM
AN0001 =    180.00000000 DEGREE
************************************************************************************************************************


 *************************************************************
 * Values of the primitive constraints                       *
 *************************************************************
 BO0001   : Bond Length=  2.863032 / Angstrom  5.410347 / bohr
 BO0002   : Bond Length=  1.277769 / Angstrom  2.414634 / bohr
 AN0001   : Angle=      176.3166   / Degree    3.077306 / rad

 *******************************************
 * Values of the constraints   / au or rad *
 *******************************************
   Label        C         C0
 Cns001      5.410347  3.779452
 Cns002      2.414634  4.535343
 Cns003      3.077306  3.141593

  26  -289.88631801  -289.88554349     0.00077452  0.07925509  0.11464325  0.01518487  0.09350057  0.21371598  0.00374940     79.24

 Constraints section
ConstraintsConstraintsConstraintsConstraintsConstraintsConstraintsConstraintsConstraintsConstraintsConstraints
ConstraintsConstraintsConstraintsConstraintsConstraintsConstraintsConstraintsConstraintsConstraintsConstraints
Constraints                                                                                        Constraints
Constraints                                 C O N S T R A I N T S                                  Constraints
Constraints                                                                                        Constraints

************************************************************************************************************************
BO0001 = BOND       H11   C6
BO0002 = BOND       H11   C17
AN0001 = ANGLE      C6    H11   C17
VALUES
BO0001 =      2.00000000 ANGSTROM
BO0002 =      2.40000000 ANGSTROM
AN0001 =    180.00000000 DEGREE
************************************************************************************************************************


 *************************************************************
 * Values of the primitive constraints                       *
 *************************************************************
 BO0001   : Bond Length=  2.857741 / Angstrom  5.400347 / bohr
 BO0002   : Bond Length=  1.284650 / Angstrom  2.427636 / bohr
 AN0001   : Angle=      176.3395   / Degree    3.077705 / rad

 *******************************************
 * Values of the constraints   / au or rad *
 *******************************************
   Label        C         C0
 Cns001      5.400347  3.779452
 Cns002      2.427636  4.535343
 Cns003      3.077705  3.141593

  27  -289.88554349  -289.88477072     0.00077277  0.08042933  0.11621320  0.01539281  0.14943581  0.32668218  0.00573127     82.34

 Constraints section
ConstraintsConstraintsConstraintsConstraintsConstraintsConstraintsConstraintsConstraintsConstraintsConstraints
ConstraintsConstraintsConstraintsConstraintsConstraintsConstraintsConstraintsConstraintsConstraintsConstraints
Constraints                                                                                        Constraints
Constraints                                 C O N S T R A I N T S                                  Constraints
Constraints                                                                                        Constraints

************************************************************************************************************************
BO0001 = BOND       H11   C6
BO0002 = BOND       H11   C17
AN0001 = ANGLE      C6    H11   C17
VALUES
BO0001 =      2.00000000 ANGSTROM
BO0002 =      2.40000000 ANGSTROM
AN0001 =    180.00000000 DEGREE
************************************************************************************************************************


 *************************************************************
 * Values of the primitive constraints                       *
 *************************************************************
 BO0001   : Bond Length=  2.852854 / Angstrom  5.391113 / bohr
 BO0002   : Bond Length=  1.291004 / Angstrom  2.439643 / bohr
 AN0001   : Angle=      176.3608   / Degree    3.078077 / rad

 *******************************************
 * Values of the constraints   / au or rad *
 *******************************************
   Label        C         C0
 Cns001      5.391113  3.779452
 Cns002      2.439643  4.535343
 Cns003      3.078077  3.141593

  28  -289.88477072  -289.88386304     0.00090768  0.08180374  0.11813475  0.01564733  0.14994960  0.32986167  0.00578705     85.64

 Constraints section
ConstraintsConstraintsConstraintsConstraintsConstraintsConstraintsConstraintsConstraintsConstraintsConstraints
ConstraintsConstraintsConstraintsConstraintsConstraintsConstraintsConstraintsConstraintsConstraintsConstraints
Constraints                                                                                        Constraints
Constraints                                 C O N S T R A I N T S                                  Constraints
Constraints                                                                                        Constraints

************************************************************************************************************************
BO0001 = BOND       H11   C6
BO0002 = BOND       H11   C17
AN0001 = ANGLE      C6    H11   C17
VALUES
BO0001 =      2.00000000 ANGSTROM
BO0002 =      2.40000000 ANGSTROM
AN0001 =    180.00000000 DEGREE
************************************************************************************************************************


 *************************************************************
 * Values of the primitive constraints                       *
 *************************************************************
 BO0001   : Bond Length=  2.847019 / Angstrom  5.380087 / bohr
 BO0002   : Bond Length=  1.298590 / Angstrom  2.453980 / bohr
 AN0001   : Angle=      176.3865   / Degree    3.078525 / rad

 *******************************************
 * Values of the constraints   / au or rad *
 *******************************************
   Label        C         C0
 Cns001      5.380087  3.779452
 Cns002      2.453980  4.535343
 Cns003      3.078525  3.141593

  29  -289.88386304  -289.88272129     0.00114175  0.08294457  0.11977851  0.01586505  0.11099786  0.24416686  0.00428363     88.74

 Constraints section
ConstraintsConstraintsConstraintsConstraintsConstraintsConstraintsConstraintsConstraintsConstraintsConstraints
ConstraintsConstraintsConstraintsConstraintsConstraintsConstraintsConstraintsConstraintsConstraintsConstraints
Constraints                                                                                        Constraints
Constraints                                 C O N S T R A I N T S                                  Constraints
Constraints                                                                                        Constraints

************************************************************************************************************************
BO0001 = BOND       H11   C6
BO0002 = BOND       H11   C17
AN0001 = ANGLE      C6    H11   C17
VALUES
BO0001 =      2.00000000 ANGSTROM
BO0002 =      2.40000000 ANGSTROM
AN0001 =    180.00000000 DEGREE
************************************************************************************************************************


 *************************************************************
 * Values of the primitive constraints                       *
 *************************************************************
 BO0001   : Bond Length=  2.839880 / Angstrom  5.366595 / bohr
 BO0002   : Bond Length=  1.307875 / Angstrom  2.471525 / bohr
 AN0001   : Angle=      176.4172   / Degree    3.079062 / rad

 *******************************************
 * Values of the constraints   / au or rad *
 *******************************************
   Label        C         C0
 Cns001      5.366595  3.779452
 Cns002      2.471525  4.535343
 Cns003      3.079062  3.141593

  30  -289.88272129  -289.88155551     0.00116578  0.08248224  0.12005988  0.01590232  0.12378019  0.26844903  0.00470963     92.11

 Constraints section
ConstraintsConstraintsConstraintsConstraintsConstraintsConstraintsConstraintsConstraintsConstraintsConstraints
ConstraintsConstraintsConstraintsConstraintsConstraintsConstraintsConstraintsConstraintsConstraintsConstraints
Constraints                                                                                        Constraints
Constraints                                 C O N S T R A I N T S                                  Constraints
Constraints                                                                                        Constraints

************************************************************************************************************************
BO0001 = BOND       H11   C6
BO0002 = BOND       H11   C17
AN0001 = ANGLE      C6    H11   C17
VALUES
BO0001 =      2.00000000 ANGSTROM
BO0002 =      2.40000000 ANGSTROM
AN0001 =    180.00000000 DEGREE
************************************************************************************************************************


 *************************************************************
 * Values of the primitive constraints                       *
 *************************************************************
 BO0001   : Bond Length=  2.832955 / Angstrom  5.353508 / bohr
 BO0002   : Bond Length=  1.316880 / Angstrom  2.488543 / bohr
 AN0001   : Angle=      176.4472   / Degree    3.079584 / rad

 *******************************************
 * Values of the constraints   / au or rad *
 *******************************************
   Label        C         C0
 Cns001      5.353508  3.779452
 Cns002      2.488543  4.535343
 Cns003      3.079584  3.141593

  31  -289.88155551  -289.88050051     0.00105500  0.08308878  0.12112114  0.01604289  0.12239185  0.26261071  0.00460721     95.33

 Constraints section
ConstraintsConstraintsConstraintsConstraintsConstraintsConstraintsConstraintsConstraintsConstraintsConstraints
ConstraintsConstraintsConstraintsConstraintsConstraintsConstraintsConstraintsConstraintsConstraintsConstraints
Constraints                                                                                        Constraints
Constraints                                 C O N S T R A I N T S                                  Constraints
Constraints                                                                                        Constraints

************************************************************************************************************************
BO0001 = BOND       H11   C6
BO0002 = BOND       H11   C17
AN0001 = ANGLE      C6    H11   C17
VALUES
BO0001 =      2.00000000 ANGSTROM
BO0002 =      2.40000000 ANGSTROM
AN0001 =    180.00000000 DEGREE
************************************************************************************************************************


 *************************************************************
 * Values of the primitive constraints                       *
 *************************************************************
 BO0001   : Bond Length=  2.827443 / Angstrom  5.343093 / bohr
 BO0002   : Bond Length=  1.324047 / Angstrom  2.502086 / bohr
 AN0001   : Angle=      176.4710   / Degree    3.079999 / rad

 *******************************************
 * Values of the constraints   / au or rad *
 *******************************************
   Label        C         C0
 Cns001      5.343093  3.779452
 Cns002      2.502086  4.535343
 Cns003      3.079999  3.141593

  32  -289.88050051  -289.87901104     0.00148947  0.08201216  0.12097744  0.01602385  0.10308665  0.22449474  0.00393850     98.70

 Constraints section
ConstraintsConstraintsConstraintsConstraintsConstraintsConstraintsConstraintsConstraintsConstraintsConstraints
[...]

 !UKS STATE  1.1 Energy              -290.127186846471
 Nuclear energy                       263.39843767
 One-electron energy                 -910.71272018
 Two-electron energy                  390.03719760
 Density functional                   -32.85010194     PBEX=-41.47858905 PBEC= -1.74116015
 Virial quotient                       -1.00684545
 !UKS STATE  1.1 Dipole moment         -0.18007443    -0.18975026     3.44164407
 Dipole moment /Debye                  -0.45767357    -0.48226548     8.74721373

 Orbital energies for positive spin:

         1.1          2.1          3.1          4.1          5.1          6.1          7.1          8.1          9.1         10.1
    -14.365970   -10.323278   -10.273555   -10.257658   -10.257564   -10.239783   -10.237804    -0.902682    -0.885207    -0.802244

        11.1         12.1         13.1         14.1         15.1         16.1         17.1         18.1         19.1         20.1
     -0.733107    -0.685758    -0.599450    -0.523693    -0.499365    -0.482398    -0.463876    -0.438681    -0.430484    -0.421255

        21.1         22.1         23.1         24.1         25.1         26.1         27.1         28.1         29.1         30.1
     -0.411958    -0.386023    -0.379960    -0.375959    -0.343682    -0.329096    -0.329091    -0.285544    -0.080011     0.019108

 Orbital energies for negative spin:

         1.1          2.1          3.1          4.1          5.1          6.1          7.1          8.1          9.1         10.1
    -14.364306   -10.317848   -10.273695   -10.257818   -10.244409   -10.239661   -10.237709    -0.888894    -0.879430    -0.798608

        11.1         12.1         13.1         14.1         15.1         16.1         17.1         18.1         19.1         20.1
     -0.732554    -0.681091    -0.592892    -0.519329    -0.496733    -0.479809    -0.456945    -0.429986    -0.420800    -0.411057

        21.1         22.1         23.1         24.1         25.1         26.1         27.1         28.1         29.1         30.1
     -0.393758    -0.384307    -0.378794    -0.372543    -0.323699    -0.323587    -0.297365    -0.180407    -0.052694     0.020425


 HOMO     28.1    -0.285544 =      -7.7700eV
 LUMO    -28.1    -0.180407 =      -4.9091eV
 LUMO-HOMO         0.105136 =       2.8609eV

 EXPECTATION VALUE OF S**2:             0.79843361

 Occupation number threshold for pseudo-canonical orbitals: 1.9990 (occupied), 0.0010 (virtual)

 Number of pseudo-canonical occupied orbitals per symmetry:   24
 Number of active natural orbitals per symmetry:               7

 Natural orbitals saved to record    2204.2 (Orbital set 3)

 Orbital spaces for UNO-CAS (Min. occupation: 0.020  Max. occupation: 1.980):

 Closed:       26
 Active:        3


 **********************************************************************************************************************************
 DATASETS  * FILE   NREC   LENGTH (MB)   RECORD NAMES
              1      19       33.38       500      610      700      900      950      970     1001      129      960     1100   
                                          VAR    BASINP    GEOM    SYMINP    ZMAT    AOBASIS   BASIS     P2S    ABASIS      S 
                                         1400     1410     1200     1210     1080     1600     1650     1700     1800   
                                           T        V       H0       H01     AOSYM     SMH    MOLCAS    OPER     GRID   

              2      14       28.30       700     1000      520     2100     1800     2200      520(1)   700(1)  2201      520(2)
                                         GEOM     BASIS   MCVARS     RHF     GRID      UKS    MCVARS    GEOM      UKS    MCVARS    
                                         2202     1001     2203     2204   
                                          UKS     BASIS     UKS      UKS  

 PROGRAMS   *        TOTAL    DF-UKS    DF-UKS       INT    DF-UKS      OPTG    DF-UKS      OPTG    DF-UKS     DF-HF       INT
 CPU TIMES  *      1241.32    113.00      4.37      0.26      2.64    752.27     28.92    334.32      2.52      2.60      0.29
 REAL TIME  *      1266.23 SEC
 DISK USED  *        61.77 MB (local),      247.06 MB (total)
 SF USED    *        30.29 MB
 GA USED    *         3.27 MB       (max)       2.05 MB       (current)
 **********************************************************************************************************************************

 Density functional group PBE0=PBEX+PBEC
 Functional: PBEX(Automatically generated (new) PBEX)                          Gradient terms: 1
 Functional: PBEC(Automatically generated (new) PBEC)                          Gradient terms: 1
 Use libxcgrid:  F
 Use grid at  1800.2


 Exact exchange will be calculated, factor:  0.2500

 Functional: PBEX                      Factor:  0.7500
 Functional: PBEC                      Factor:  1.0000

  234265 words reserved for DFT integration

 PROGRAM * UKS-SCF (Unrestricted Kohn-Sham)     Authors: W. Meyer, H.-J. Werner, P.J. Knowles, 1993

 NUMBER OF ELECTRONS:      28+   27-    SPACE SYMMETRY=1    SPIN SYMMETRY: Doublet 
 CONVERGENCE THRESHOLDS:    1.00E-06 (Density)    1.00E-06 (Energy)
 INTEGRAL THRESHOLDS:       1.00E-11 (Initial)    1.00E-11 (Final)
 MAX. NUMBER OF ITERATIONS:       60
 INTERPOLATION TYPE:            DIIS
 INTERPOLATION STEPS:              2 (START)      1 (STEP)
 LEVEL SHIFTS:                 -0.20 (ALPHA)  -0.20 (BETA) 



 Use fine grid record 1800.2 for energy threshold  1.0D-06
 Molecular orbitals read from record     2204.2  Type=UKS/ALPHA (state 1.1)
 Molecular orbitals read from record     2204.2  Type=UKS/BETA (state 1.1)

 Molecular orbital dump at record        2205.2

 Initial alpha occupation  28
 Initial beta  occupation  27

 Direct Fock-matrix evaluation.        Author: H.-J. Werner (1996)

 Integral Threshold:                  0.1D-10

 ITERATION   DDIFF            GRAD            ENERGY        2-EL.EN.            DIPOLE MOMENTS         DIIS   CPU(IT)  CPU(TOT)
    1      0.000D+00      0.000D+00      -290.12691641    780.074936   -0.18007   -0.18975    3.44164    0      9.2      9.3
    2      0.352D-04      0.788D-05      -290.12691796    780.071250   -0.18005   -0.18975    3.44189    1      8.3     17.5
    3      0.109D-04      0.141D-05      -290.12691805    780.072227   -0.18007   -0.18973    3.44180    2      7.9     25.4
    4      0.369D-05      0.308D-06      -290.12691805    780.072025   -0.18004   -0.18974    3.44194    3      7.6     33.1
    5      0.872D-06      0.254D-06      -290.12691806    780.072070   -0.18006   -0.18973    3.44176    4      7.2     40.3
    6      0.518D-06      0.147D-06      -290.12691806    780.072345   -0.18005   -0.18973    3.44179    5      7.1     47.4

 Final alpha occupancy:  28
 Final beta  occupancy:  27

 !UKS STATE  1.1 Energy              -290.126918057161
 Nuclear energy                       263.39843767
 One-electron energy                 -910.71168843
 Two-electron energy                  390.03617229
 Density functional                   -32.84983959     PBEX=-41.47818402 PBEC= -1.74120158
 Virial quotient                       -1.00685495
 !UKS STATE  1.1 Dipole moment         -0.18004677    -0.18973247     3.44179298
 Dipole moment /Debye                  -0.45760326    -0.48222026     8.74759221

 Orbital energies for positive spin:

         1.1          2.1          3.1          4.1          5.1          6.1          7.1          8.1          9.1         10.1
    -14.366025   -10.323275   -10.273573   -10.257717   -10.257572   -10.239835   -10.237855    -0.902684    -0.885209    -0.802255

        11.1         12.1         13.1         14.1         15.1         16.1         17.1         18.1         19.1         20.1
     -0.733115    -0.685763    -0.599452    -0.523697    -0.499371    -0.482408    -0.463884    -0.438678    -0.430503    -0.421261

        21.1         22.1         23.1         24.1         25.1         26.1         27.1         28.1         29.1         30.1
     -0.411960    -0.386020    -0.379968    -0.375961    -0.343676    -0.329105    -0.329100    -0.285524    -0.080059     0.019057

 Orbital energies for negative spin:

         1.1          2.1          3.1          4.1          5.1          6.1          7.1          8.1          9.1         10.1
    -14.364354   -10.317842   -10.273713   -10.257876   -10.244424   -10.239713   -10.237760    -0.888887    -0.879430    -0.798618

        11.1         12.1         13.1         14.1         15.1         16.1         17.1         18.1         19.1         20.1
     -0.732561    -0.681093    -0.592891    -0.519331    -0.496738    -0.479819    -0.456954    -0.430004    -0.420804    -0.411059

        21.1         22.1         23.1         24.1         25.1         26.1         27.1         28.1         29.1         30.1
     -0.393756    -0.384304    -0.378802    -0.372543    -0.323704    -0.323592    -0.297355    -0.180403    -0.052736     0.020373


 HOMO     28.1    -0.285524 =      -7.7695eV
 LUMO    -28.1    -0.180403 =      -4.9090eV
 LUMO-HOMO         0.105122 =       2.8605eV

 EXPECTATION VALUE OF S**2:             0.79847429

 Occupation number threshold for pseudo-canonical orbitals: 1.9990 (occupied), 0.0010 (virtual)

 Number of pseudo-canonical occupied orbitals per symmetry:   24
 Number of active natural orbitals per symmetry:               7

 Natural orbitals saved to record    2205.2 (Orbital set 3)

 Orbital spaces for UNO-CAS (Min. occupation: 0.020  Max. occupation: 1.980):

 Closed:       26
 Active:        3


 **********************************************************************************************************************************
 DATASETS  * FILE   NREC   LENGTH (MB)   RECORD NAMES
              1      19       33.38       500      610      700      900      950      970     1001      129      960     1100   
                                          VAR    BASINP    GEOM    SYMINP    ZMAT    AOBASIS   BASIS     P2S    ABASIS      S 
                                         1400     1410     1200     1210     1080     1600     1650     1700     1800   
                                           T        V       H0       H01     AOSYM     SMH    MOLCAS    OPER     GRID   

              2      15       34.15       700     1000      520     2100     1800     2200      520(1)   700(1)  2201      520(2)
                                         GEOM     BASIS   MCVARS     RHF     GRID      UKS    MCVARS    GEOM      UKS    MCVARS    
                                         2202     1001     2203     2204     2205   
                                          UKS     BASIS     UKS      UKS      UKS  

 PROGRAMS   *        TOTAL   UKS-SCF    DF-UKS    DF-UKS       INT    DF-UKS      OPTG    DF-UKS      OPTG    DF-UKS     DF-HF
 CPU TIMES  *      1288.75     47.42    113.00      4.37      0.26      2.64    752.27     28.92    334.32      2.52      2.60
 REAL TIME  *      1313.72 SEC
 DISK USED  *        67.62 MB (local),      270.49 MB (total)
 SF USED    *        30.29 MB
 GA USED    *         3.27 MB       (max)       2.05 MB       (current)
 **********************************************************************************************************************************

 Density functional group B3LYP=B88+DIRAC+LYP+VWN5
 Functional: B88(Automatically generated (new) B88)                            Gradient terms: 1
 Functional: DIRAC(Automatically generated (new) DIRAC)                        Gradient terms: 0
 Functional: LYP(Automatically generated (new) LYP)                            Gradient terms: 1
 Functional: VWN5(Automatically generated (new) VWN5)                          Gradient terms: 0
 Use libxcgrid:  F
 Use grid at  1800.2


 Exact exchange will be calculated, factor:  0.2000

 Functional: B88                       Factor:  0.7200
 Functional: DIRAC                     Factor:  0.0800
 Functional: LYP                       Factor:  0.8100
 Functional: VWN5                      Factor:  0.1900

  234265 words reserved for DFT integration

 PROGRAM * UKS-SCF (Unrestricted Kohn-Sham)     Authors: W. Meyer, H.-J. Werner, P.J. Knowles, 1993

 NUMBER OF ELECTRONS:      28+   27-    SPACE SYMMETRY=1    SPIN SYMMETRY: Doublet 
 CONVERGENCE THRESHOLDS:    1.00E-06 (Density)    1.00E-06 (Energy)
 INTEGRAL THRESHOLDS:       1.00E-11 (Initial)    1.00E-11 (Final)
 MAX. NUMBER OF ITERATIONS:       60
 INTERPOLATION TYPE:            DIIS
 INTERPOLATION STEPS:              2 (START)      1 (STEP)
 LEVEL SHIFTS:                 -0.20 (ALPHA)  -0.20 (BETA) 



 Use fine grid record 1800.2 for energy threshold  1.0D-06
 Molecular orbitals read from record     2205.2  Type=UKS/ALPHA (state 1.1)
 Molecular orbitals read from record     2205.2  Type=UKS/BETA (state 1.1)

 Molecular orbital dump at record        2206.2

 Initial alpha occupation  28
 Initial beta  occupation  27

 Direct Fock-matrix evaluation.        Author: H.-J. Werner (1996)

 Integral Threshold:                  0.1D-10

 ITERATION   DDIFF            GRAD            ENERGY        2-EL.EN.            DIPOLE MOMENTS         DIIS   CPU(IT)  CPU(TOT)
    1      0.000D+00      0.000D+00      -290.30508443    784.230526   -0.18005   -0.18973    3.44179    0      9.3      9.3
    2      0.956D-03      0.388D-03      -290.30920827    784.598006   -0.18048   -0.19233    3.47239    1      8.5     17.8
    3      0.178D-03      0.626D-04      -290.30942566    784.274904   -0.18290   -0.19275    3.46672    2      8.3     26.1
    4      0.961D-04      0.287D-04      -290.30947150    784.315578   -0.18097   -0.19428    3.49093    3      8.2     34.3
    5      0.328D-04      0.200D-04      -290.30949431    784.322131   -0.18363   -0.19364    3.48669    4      8.0     42.3
    6      0.260D-04      0.122D-04      -290.30951213    784.294296   -0.18429   -0.19438    3.50014    5      8.0     50.3
    7      0.214D-04      0.616D-05      -290.30952968    784.301416   -0.18576   -0.19500    3.51256    6      8.0     58.2
    8      0.229D-04      0.437D-05      -290.30954362    784.286401   -0.18788   -0.19608    3.53256    7      7.9     66.1
    9      0.154D-04      0.261D-05      -290.30954715    784.285072   -0.18952   -0.19653    3.54403    8      7.9     74.0
   10      0.371D-05      0.822D-06      -290.30954738    784.284773   -0.18959   -0.19678    3.54652    9      7.6     81.6
   11      0.151D-05      0.491D-06      -290.30954744    784.284554   -0.18973   -0.19679    3.54707    9      7.4     89.0
   12      0.142D-05      0.319D-06      -290.30954748    784.284416   -0.18975   -0.19680    3.54736    9      7.3     96.3
   13      0.791D-06      0.160D-06      -290.30954749    784.284274   -0.18977   -0.19682    3.54745    9      7.1    103.4
   14      0.296D-06      0.821D-07      -290.30954749    784.284349   -0.18976   -0.19682    3.54748    9      6.9    110.3

 Final alpha occupancy:  28
 Final beta  occupancy:  27

 !UKS STATE  1.1 Energy              -290.309547492921
 Nuclear energy                       263.39843767
 One-electron energy                 -910.71674211
 Two-electron energy                  392.14217432
 Density functional                   -35.13341737     B88=-41.74997619 DIRAC=-37.50665689 LYP= -1.75442299 VWN5= -3.43062814
 Virial quotient                       -1.00639112
 !UKS STATE  1.1 Dipole moment         -0.18975994    -0.19681715     3.54747967
 Dipole moment /Debye                  -0.48229007    -0.50022652     9.01620339

 Orbital energies for positive spin:

         1.1          2.1          3.1          4.1          5.1          6.1          7.1          8.1          9.1         10.1
    -14.294670   -10.270290   -10.220793   -10.207494   -10.198534   -10.188642   -10.186593    -0.873183    -0.860890    -0.780283

        11.1         12.1         13.1         14.1         15.1         16.1         17.1         18.1         19.1         20.1
     -0.712593    -0.667083    -0.583536    -0.509956    -0.485738    -0.469735    -0.452048    -0.419617    -0.417049    -0.410515

        21.1         22.1         23.1         24.1         25.1         26.1         27.1         28.1         29.1         30.1
     -0.401820    -0.376554    -0.370304    -0.367120    -0.328803    -0.312611    -0.312600    -0.276122    -0.088445     0.008895

 Orbital energies for negative spin:

         1.1          2.1          3.1          4.1          5.1          6.1          7.1          8.1          9.1         10.1
    -14.292684   -10.265789   -10.220867   -10.207583   -10.188534   -10.186831   -10.186509    -0.860001    -0.856132    -0.777274

        11.1         12.1         13.1         14.1         15.1         16.1         17.1         18.1         19.1         20.1
     -0.712131    -0.663203    -0.578114    -0.506344    -0.483580    -0.467490    -0.446267    -0.419109    -0.410171    -0.401070

        21.1         22.1         23.1         24.1         25.1         26.1         27.1         28.1         29.1         30.1
     -0.377041    -0.375012    -0.369226    -0.364312    -0.307097    -0.306975    -0.287617    -0.186800    -0.062030     0.009655


 HOMO     28.1    -0.276122 =      -7.5137eV
 LUMO    -28.1    -0.186800 =      -5.0831eV
 LUMO-HOMO         0.089322 =       2.4306eV

 EXPECTATION VALUE OF S**2:             0.77809830

 Occupation number threshold for pseudo-canonical orbitals: 1.9990 (occupied), 0.0010 (virtual)

 Number of pseudo-canonical occupied orbitals per symmetry:   26
 Number of active natural orbitals per symmetry:               3

 Natural orbitals saved to record    2206.2 (Orbital set 3)

 Orbital spaces for UNO-CAS (Min. occupation: 0.020  Max. occupation: 1.980):

 Closed:       27
 Active:        1


 **********************************************************************************************************************************
 DATASETS  * FILE   NREC   LENGTH (MB)   RECORD NAMES
              1      19       33.38       500      610      700      900      950      970     1001      129      960     1100   
                                          VAR    BASINP    GEOM    SYMINP    ZMAT    AOBASIS   BASIS     P2S    ABASIS      S 
                                         1400     1410     1200     1210     1080     1600     1650     1700     1800   
                                           T        V       H0       H01     AOSYM     SMH    MOLCAS    OPER     GRID   

              2      16       40.01       700     1000      520     2100     1800     2200      520(1)   700(1)  2201      520(2)
                                         GEOM     BASIS   MCVARS     RHF     GRID      UKS    MCVARS    GEOM      UKS    MCVARS    
                                         2202     1001     2203     2204     2205     2206   
                                          UKS     BASIS     UKS      UKS      UKS      UKS  

 PROGRAMS   *        TOTAL   UKS-SCF   UKS-SCF    DF-UKS    DF-UKS       INT    DF-UKS      OPTG    DF-UKS      OPTG    DF-UKS
 CPU TIMES  *      1399.14    110.39     47.42    113.00      4.37      0.26      2.64    752.27     28.92    334.32      2.52
 REAL TIME  *      1424.20 SEC
 DISK USED  *        73.48 MB (local),      293.91 MB (total)
 SF USED    *        30.29 MB
 GA USED    *         3.27 MB       (max)       2.05 MB       (current)
 **********************************************************************************************************************************

 UB3LYP/TZVP//CF-UKS/SVP energy=   -290.309547492921

         UKS-SCF         UKS-SCF          DF-UKS          DF-UKS          DF-UKS    OPTG(DF-UKS)          DF-UKS    OPTG(DF-UKS)
   -290.30954749   -290.12691806   -290.12718685   -290.10807330   -289.78537821   -289.81136217   -289.80928588   -289.78499505
 **********************************************************************************************************************************
 Molpro calculation terminated with 2 warning(s)
