
 Primary working directories    : /mnt/storage/home/lb17101/scratch/1379459/molpro.DW58wJHPEH
 Secondary working directories  : /mnt/storage/home/lb17101/scratch/1379459/molpro.DW58wJHPEH
 Wavefunction directory         : /mnt/storage/home/lb17101/optimizations/7/
 Main file repository           : /mnt/storage/home/lb17101/optimizations/7/

 id        : simonbennie

 Nodes                   nprocs
 compute070.bc4.acrc.priv    4

 Using customized tuning parameters: mindgm=1; mindgv=20; mindgc=4; mindgr=1; noblas=0; minvec=7
 default implementation of scratch files=sf  


 Variables initialized (924), CPU time= 0.01 sec
 memory,536,m
 
 geomtyp=xyz
 
 nosym
 noorient
 gdirect
 angstrom
 
 geometry=input.xyz
 Including file /mnt/storage/home/lb17101/optimizations/7/input.xyz
 
 set,charge=0
 
 basis=svp
 df-hf
 {cf-uks,pbe;}
 {optg,method=slrf,maxiter=50;
 constraint,1.800,angstrom,bond,atoms=[H7,C1]
 constraint,2.200,angstrom,bond,atoms=[H7,C17]
 constraint,180,deg,angle,atoms=[C1,H7,C17]
 {slopt;}}
 {cf-uks,pbe0;}
 {optg,method=slrf,maxiter=20;
 constraint,1.800,angstrom,bond,atoms=[H7,C1]
 constraint,2.200,angstrom,bond,atoms=[H7,C17]
 constraint,180,deg,angle,atoms=[C1,H7,C17]
 {slopt;}}
 {cf-uks,pbe;}
 basis=tzvp
 {cf-uks,pbe;}
 {cf-uks,pbe0;}
 {uks,pbe0;}
 {uks,b3lyp;}
 Commands  initialized (760), CPU time= 0.01 sec, 616 directives.
 Default parameters read. Elapsed time= 0.06 sec

 Checking input...
 Passed
1


                                         ***  PROGRAM SYSTEM MOLPRO  ***
                                       Copyright, TTI GmbH Stuttgart, 2015
                                    Version 2018.1 linked Oct 16 2018 14:32:03


 **********************************************************************************************************************************
 LABEL *                                                                                 
  64 bit mpp version                                                                     DATE: 10-Nov-18          TIME: 02:32:28  
 **********************************************************************************************************************************

 SHA1:             d673ad554fd0a1ae99daa449513f8b88cca0f763
 **********************************************************************************************************************************
 SETTING GEOMTYP        =    XYZ

 Variable memory set to  536000000 words,  buffer space 

 ZSYMEL=NOSYM
 ZUNIT=ANG

 SETTING CHARGE         =     0.00000000D+00                                  
 SETTING BASIS          =    SVP


 Recomputing integrals since basis changed


 Using spherical harmonics

 Library entry C      S def2-SVP             selected for orbital group  1
 Library entry C      P def2-SVP             selected for orbital group  1
 Library entry C      D def2-SVP             selected for orbital group  1
 Library entry H      S def2-SVP             selected for orbital group  2
 Library entry H      P def2-SVP             selected for orbital group  2
 Library entry N      S def2-SVP             selected for orbital group  8
 Library entry N      P def2-SVP             selected for orbital group  8
 Library entry N      D def2-SVP             selected for orbital group  8


 PROGRAM * SEWARD (Integral evaluation for generally contracted gaussian basis sets)     Author: Roland Lindh, 1990

 Geometry written to block  1 of record 700


 Point group  C1  



 ATOMIC COORDINATES

 NR  ATOM    CHARGE       X              Y              Z

   1  C0      6.00  -15.316925113    4.888078256   -0.767052243
   2  C1      6.00  -12.509659000    4.644678157   -1.070390898
   3  H2      1.00  -16.346413757    3.266393148   -1.611352563
   4  H3      1.00  -16.060070410    6.659028964   -1.611398073
   5  H4      1.00  -15.867278179    4.939078915    1.276322047
   6  C5      6.00  -10.928940534    6.951542313   -0.623723353
   7  C6      6.00  -11.391119286    2.048705088   -0.721610816
   8  H7      1.00  -12.064532823    4.811752729   -5.409853371
   9  H8      1.00  -11.858594393    8.684827474   -1.350707090
  10  H9      1.00   -9.024283094    6.819447243   -1.489688335
  11  H10     1.00  -10.607924720    7.281743571    1.443810111
  12  H11     1.00  -12.564834386    0.660594741   -1.783784990
  13  H12     1.00  -11.651586181    1.480313562    1.306983776
  14  C13     6.00   -8.601100060    1.708416740   -1.418172702
  15  H14     1.00   -8.227734962    2.222762924   -3.417429662
  16  H15     1.00   -8.014177585   -0.286184374   -1.167620133
  17  H16     1.00   -7.341877758    2.878713852   -0.220497868
  18  C17     6.00  -11.862435348    4.823883071   -7.478668950
  19  N18     7.00  -11.637187328    4.827537747   -9.674272220

 Bond lengths in Bohr (Angstrom)

 1-2  2.834078506  1-3  2.098226034  1-4  2.097963589  1-5  2.116806098  2-6  2.831926023
     ( 1.499729759)     ( 1.110333401)     ( 1.110194521)     ( 1.120165547)     ( 1.498590715)

  2- 7  2.848131811   6- 9  2.096911801   6-10  2.096440894   6-11  2.118201749   7-12  2.105391044
       ( 1.507166448)       ( 1.109637938)       ( 1.109388745)       ( 1.120904093)       ( 1.114124961)

  7-13  2.122759513   7-14  2.895721310   8-18  2.078698735  14-15  2.097851731  14-16  2.094203473
       ( 1.123315958)       ( 1.532349726)       ( 1.099999999)       ( 1.110135328)       ( 1.108204753)

 14-17  2.095151819  18-19  2.207130206
       ( 1.108706596)       ( 1.167963007)

 Bond angles

  1-2-6  117.77855146   1-2-7  117.01248036   2-1-3  112.12069309   2-1-4  112.35172672

  2- 1- 5  111.27971143   2- 6- 9  111.78876771   2- 6-10  112.99419310   2- 6-11  111.44020680

  2- 7-12  108.67630802   2- 7-13  108.23366762   2- 7-14  117.13216098   3- 1- 4  108.46167851

  3- 1- 5  106.22951316   4- 1- 5  106.02553003   6- 2- 7  120.26137390   7-14-15  111.83345378

  7-14-16  110.68168460   7-14-17  112.08183597   8-18-19  179.63297686   9- 6-10  108.15949919

  9- 6-11  106.06536737  10- 6-11  105.98101855  12- 7-13  103.72019587  12- 7-14  109.77304899

 13- 7-14  108.45956817  15-14-16  107.31683745  15-14-17  107.50922167  16-14-17  107.16800153

 NUCLEAR CHARGE:                   55
 NUMBER OF PRIMITIVE AOS:         259
 NUMBER OF SYMMETRY AOS:          252
 NUMBER OF CONTRACTIONS:          158   (  158A   )
 NUMBER OF CORE ORBITALS:           7   (    7A   )
 NUMBER OF VALENCE ORBITALS:       40   (   40A   )


 NUCLEAR REPULSION ENERGY  275.70817015


 Eigenvalues of metric

         1 0.193E-02 0.310E-02 0.390E-02 0.405E-02 0.652E-02 0.110E-01 0.215E-01 0.232E-01


 OPERATOR DM      FOR CENTER  0  COORDINATES:    0.000000    0.000000    0.000000


 **********************************************************************************************************************************
 DATASETS  * FILE   NREC   LENGTH (MB)   RECORD NAMES
              1      18       31.21       500      610      700      900      950      970     1000      129      960     1100   
                                          VAR    BASINP    GEOM    SYMINP    ZMAT    AOBASIS   BASIS     P2S    ABASIS      S 
                                         1400     1410     1200     1210     1080     1600     1650     1700   
                                           T        V       H0       H01     AOSYM     SMH    MOLCAS    OPER   

 PROGRAMS   *        TOTAL       INT
 CPU TIMES  *         0.47      0.33
 REAL TIME  *         0.76 SEC
 DISK USED  *        31.83 MB (local),      127.32 MB (total)
 GA USED    *         0.00 MB       (max)       0.00 MB       (current)
 **********************************************************************************************************************************


 PROGRAM * RHF-SCF (OPEN SHELL)       Authors: W. Meyer, H.-J. Werner


 NUMBER OF ELECTRONS:      28+   27-    SPACE SYMMETRY=1    SPIN SYMMETRY: Doublet 
 CONVERGENCE THRESHOLDS:    1.00E-06 (Density)    1.00E-07 (Energy)
 INTEGRAL THRESHOLDS:       1.00E-11 (Initial)    1.00E-11 (Final)
 MAX. NUMBER OF ITERATIONS:       60
 INTERPOLATION TYPE:            DIIS
 INTERPOLATION STEPS:              2 (START)      1 (STEP)
 LEVEL SHIFTS:                 -0.60 (CLOSED) -0.30 (OPEN) 




 Basis set DEF2-SVP/JKFIT generated.     Number of basis functions:   560 

 Orbital guess generated from atomic densities. Full valence occupancy:   28
 Using density fitting in orbital guess

 Coulomb and exchange fitting
 Thresholds for fitting:       THRAO_COUL= 1.0D-14    THRAO_EXCH= 1.0D-12    THRMO= 1.0D-11    THRPROD= 1.0D-11    THRASM= 1.0D-11
                               THR2HLF=    1.0D-11

 Molecular orbital dump at record        2100.2

 Initial alpha occupancy:  28
 Initial beta  occupancy:  27
 Wave function symmetry:    1

 ITERATION   DDIFF            GRAD            ENERGY        2-EL.EN.            DIPOLE MOMENTS         DIIS   CPU(IT)  CPU(TOT)  ORB.
    1      0.000D+00      0.000D+00      -288.25653108    743.427118   -0.20611   -0.03282    2.24955    0      0.2      0.5     start
    2      0.000D+00      0.404D-02      -288.33743391    740.463678   -0.12968   -0.03912    1.76432    1      0.2      0.7     diag,B
    3      0.326D-02      0.159D-02      -288.35408585    740.537927   -0.13062   -0.04387    1.76760    2      0.2      0.9     diag,B
    4      0.172D-02      0.766D-03      -288.36085477    740.506910   -0.11869   -0.04677    1.67918    3      0.2      1.1     diag,B
    5      0.163D-02      0.217D-03      -288.36155294    740.466718   -0.11622   -0.04505    1.65893    4      0.2      1.3     diag,B
    6      0.673D-03      0.760D-04      -288.36165427    740.440907   -0.11505   -0.04372    1.64661    5      0.2      1.5     diag,B
    7      0.303D-03      0.227D-04      -288.36166362    740.433141   -0.11464   -0.04323    1.64196    6      0.2      1.6     fixocc
    8      0.786D-04      0.773D-05      -288.36166489    740.432495   -0.11448   -0.04309    1.64001    7      0.2      1.8     diag,B
    9      0.316D-04      0.272D-05      -288.36166507    740.432757   -0.11445   -0.04307    1.63943    8      0.2      2.0     diag,B
   10      0.174D-04      0.804D-06      -288.36166509    740.432894   -0.11445   -0.04308    1.63939    9      0.2      2.2     orth
   11      0.584D-05      0.243D-06      -288.36166509    740.432896   -0.11445   -0.04308    1.63942    9      0.2      2.4     diag,B
   12      0.155D-05      0.737D-07      -288.36166509    740.432889   -0.11445   -0.04308    1.63944    9      0.2      2.6     diag,B
   13      0.311D-06      0.320D-07      -288.36166509    740.432885   -0.11445   -0.04308    1.63944    0      0.2      2.8     orth

 Final alpha occupancy:  28
 Final beta  occupancy:  27

 !RHF STATE  1.1 Energy              -288.361665089846
 Nuclear energy                       275.70817015
 One-electron energy                 -934.28627784
 Two-electron energy                  370.21644260
 Virial quotient                       -1.00680784
 !RHF STATE  1.1 Dipole moment         -0.11445169    -0.04308226     1.63943652
 Dipole moment /Debye                  -0.29088811    -0.10949701     4.16675908

 Orbital energies:

         1.1          2.1          3.1          4.1          5.1          6.1          7.1          8.1          9.1         10.1
    -15.592641   -11.291335   -11.246750   -11.244969   -11.243934   -11.242577   -11.239168    -1.205717    -1.088407    -0.997104

        11.1         12.1         13.1         14.1         15.1         16.1         17.1         18.1         19.1         20.1
     -0.940315    -0.861368    -0.781930    -0.724005    -0.631077    -0.624398    -0.598168    -0.575224    -0.565807    -0.547432

        21.1         22.1         23.1         24.1         25.1         26.1         27.1         28.1         29.1         30.1
     -0.545110    -0.525552    -0.501852    -0.488453    -0.484725    -0.481223    -0.480751    -0.353407     0.152478     0.161665


 HOMO     28.1    -0.353407 =      -9.6167eV
 LUMO     29.1     0.152478 =       4.1492eV
 LUMO-HOMO         0.505885 =      13.7658eV


 **********************************************************************************************************************************
 DATASETS  * FILE   NREC   LENGTH (MB)   RECORD NAMES
              1      18       31.21       500      610      700      900      950      970     1000      129      960     1100   
                                          VAR    BASINP    GEOM    SYMINP    ZMAT    AOBASIS   BASIS     P2S    ABASIS      S 
                                         1400     1410     1200     1210     1080     1600     1650     1700   
                                           T        V       H0       H01     AOSYM     SMH    MOLCAS    OPER   

              2       4        3.88       700     1000      520     2100   
                                         GEOM     BASIS   MCVARS     RHF  

 PROGRAMS   *        TOTAL     DF-HF       INT
 CPU TIMES  *         3.27      2.80      0.33
 REAL TIME  *         3.73 SEC
 DISK USED  *        38.78 MB (local),      155.11 MB (total)
 SF USED    *        34.96 MB
 GA USED    *         3.27 MB       (max)       0.00 MB       (current)
 **********************************************************************************************************************************

 Density functional group PBE=PBEX+PBEC
 Functional: PBEX(Automatically generated (new) PBEX)                          Gradient terms: 1
 Functional: PBEC(Automatically generated (new) PBEC)                          Gradient terms: 1
 Use libxcgrid:  F
 Use grid at  1800.2

 Functional: PBEX                      Factor:  1.0000
 Functional: PBEC                      Factor:  1.0000

 Generated new metagrid on record  1800.2 with target accuracy 1.0D-06 and 65784 points in CPU time    0.5
 Computed new grid on record 1800.1 in CPU time    0.6
  129907 words reserved for DFT integration

 PROGRAM * UKS-SCF (Unrestricted Kohn-Sham)     Authors: W. Meyer, H.-J. Werner, P.J. Knowles, 1993

 NUMBER OF ELECTRONS:      28+   27-    SPACE SYMMETRY=1    SPIN SYMMETRY: Doublet 
 CONVERGENCE THRESHOLDS:    1.00E-06 (Density)    1.00E-06 (Energy)
 INTEGRAL THRESHOLDS:       1.00E-11 (Initial)    1.00E-11 (Final)
 MAX. NUMBER OF ITERATIONS:       60
 INTERPOLATION TYPE:            DIIS
 INTERPOLATION STEPS:              2 (START)      1 (STEP)
 LEVEL SHIFTS:                 -0.20 (ALPHA)  -0.20 (BETA) 



 Use fine grid record 1800.2 for energy threshold  1.0D-06

 Basis set DEF2-SVP/JFIT generated.      Number of basis functions:   475 
 Coulomb fitting
 Screening thresholds:    THRAO_COUL= 1.0D-14    THRAO= 1.0D-12    THROV= 1.0D-12

 Reserved 1 MW to cache 100.0% of significant integrals (4 MW global). CPU: 0.1 sec

 Molecular orbitals read from record     2100.2  Type=RHF/CANONICAL (state 1.1)

 Molecular orbital dump at record        2200.2

 Initial alpha occupation  28
 Initial beta  occupation  27

 ITERATION    DDIFF          GRAD             ENERGY        2-EL.EN.            DIPOLE MOMENTS         DIIS  CPU(IT) CPU(TOT)
    1      0.000D+00      0.000D+00      -289.87050375    823.934242   -0.11445   -0.04308    1.63944    0      0.2      0.3
    2      0.429D-02      0.217D-02      -289.91259013    827.062708   -0.10690   -0.04937    1.55566    1      0.2      0.4
    3      0.153D-02      0.457D-03      -289.91660101    825.696081   -0.10381   -0.04674    1.54245    2      0.2      0.6
    4      0.834D-03      0.208D-03      -289.91769905    826.227713   -0.10385   -0.05030    1.51656    3      0.2      0.8
    5      0.337D-03      0.928D-04      -289.91786070    826.157874   -0.10686   -0.04941    1.56732    4      0.2      0.9
    6      0.190D-03      0.897D-04      -289.91797801    826.078895   -0.10312   -0.04981    1.53883    5      0.2      1.1
    7      0.959D-04      0.220D-04      -289.91799471    826.097063   -0.10419   -0.05056    1.54440    6      0.2      1.3
    8      0.371D-04      0.875D-05      -289.91799683    826.094263   -0.10355   -0.05059    1.54414    7      0.2      1.4
    9      0.129D-04      0.279D-05      -289.91799707    826.096370   -0.10363   -0.05055    1.54438    8      0.2      1.6
   10      0.593D-05      0.130D-05      -289.91799711    826.094738   -0.10360   -0.05061    1.54427    8      0.2      1.8
   11      0.233D-05      0.298D-06      -289.91799711    826.094855   -0.10360   -0.05062    1.54421    8      0.2      1.9
   12      0.668D-06      0.111D-06      -289.91799712    826.094924   -0.10361   -0.05061    1.54421    8      0.2      2.1
   13      0.420D-06      0.682D-07      -289.91799712    826.094860   -0.10360   -0.05061    1.54419    7      0.2      2.2

 Final alpha occupancy:  28
 Final beta  occupancy:  27

 !UKS STATE  1.1 Energy              -289.917997115502
 Nuclear energy                       275.70817015
 One-electron energy                 -935.39562354
 Two-electron energy                  413.04742977
 Density functional                   -43.27797350     PBEX=-41.51503390 PBEC= -1.76293960
 Virial quotient                       -1.01214346
 !UKS STATE  1.1 Dipole moment         -0.10360472    -0.05061141     1.54418668
 Dipole moment /Debye                  -0.26331970    -0.12863294     3.92467397

 Orbital energies for positive spin:

         1.1          2.1          3.1          4.1          5.1          6.1          7.1          8.1          9.1         10.1
    -14.001646    -9.936594    -9.924487    -9.912447    -9.907742    -9.906695    -9.901996    -0.811440    -0.743548    -0.670299

        11.1         12.1         13.1         14.1         15.1         16.1         17.1         18.1         19.1         20.1
     -0.629061    -0.571142    -0.522383    -0.480687    -0.418081    -0.416680    -0.394820    -0.376360    -0.351639    -0.348992

        21.1         22.1         23.1         24.1         25.1         26.1         27.1         28.1         29.1         30.1
     -0.332703    -0.317068    -0.310681    -0.308824    -0.308464    -0.305407    -0.303193    -0.161479    -0.017647    -0.014435

 Orbital energies for negative spin:

         1.1          2.1          3.1          4.1          5.1          6.1          7.1          8.1          9.1         10.1
    -14.001645    -9.935992    -9.913073    -9.912263    -9.908386    -9.907369    -9.901869    -0.811127    -0.731794    -0.667411

        11.1         12.1         13.1         14.1         15.1         16.1         17.1         18.1         19.1         20.1
     -0.626776    -0.568035    -0.519294    -0.469213    -0.413309    -0.409254    -0.389743    -0.370902    -0.347691    -0.347279

        21.1         22.1         23.1         24.1         25.1         26.1         27.1         28.1         29.1         30.1
     -0.331599    -0.313815    -0.310378    -0.308083    -0.308056    -0.302630    -0.299344    -0.096959    -0.016958    -0.013646


 HOMO     28.1    -0.161479 =      -4.3941eV
 LUMO    -28.1    -0.096959 =      -2.6384eV
 LUMO-HOMO         0.064520 =       1.7557eV

 EXPECTATION VALUE OF S**2:             0.75315631

 Occupation number threshold for pseudo-canonical orbitals: 1.9990 (occupied), 0.0010 (virtual)

 Number of pseudo-canonical occupied orbitals per symmetry:   27
 Number of active natural orbitals per symmetry:               1

 Natural orbitals saved to record    2200.2 (Orbital set 3)

 Orbital spaces for UNO-CAS (Min. occupation: 0.020  Max. occupation: 1.980):

 Closed:       27
 Active:        1


 **********************************************************************************************************************************
 DATASETS  * FILE   NREC   LENGTH (MB)   RECORD NAMES
              1      19       31.21       500      610      700      900      950      970     1000      129      960     1100   
                                          VAR    BASINP    GEOM    SYMINP    ZMAT    AOBASIS   BASIS     P2S    ABASIS      S 
                                         1400     1410     1200     1210     1080     1600     1650     1700     1800   
                                           T        V       H0       H01     AOSYM     SMH    MOLCAS    OPER     GRID   

              2       6        7.61       700     1000      520     2100     1800     2200   
                                         GEOM     BASIS   MCVARS     RHF     GRID      UKS  

 PROGRAMS   *        TOTAL    DF-UKS     DF-HF       INT
 CPU TIMES  *         6.16      2.89      2.80      0.33
 REAL TIME  *         6.74 SEC
 DISK USED  *        38.89 MB (local),      155.54 MB (total)
 SF USED    *        34.96 MB
 GA USED    *         3.27 MB       (max)       2.17 MB       (current)
 **********************************************************************************************************************************


 PROGRAM * OPT (Geometry optimization)     Authors: F. Eckert and H.-J. Werner


 BFGS update of hessian


********** USER DEFINED INT/FIX/CONSTRAINTS ****************

List of primitive internal coordinates

     N      Name     Type   Natoms   Atom list

     1    Bo0001     Bond        2      H7   C1  
     2    Bo0002     Bond        2      H7   C17 
     3    An0001     Angle       3      C1   H7   C17 

List of user defined internal/fixed coordinates and constraints

- - - - - - - - - - - - - - - - - - - - - - - - - - - - - - - - - 
    N      Name   Type      Pname     Coeff       Value   Unit
- - - - - - - - - - - - - - - - - - - - - - - - - - - - - - - - - 
    1    Cns001    Con     Bo0001     1.000     1.80000 Angstrom
- - - - - - - - - - - - - - - - - - - - - - - - - - - - - - - - - 
    2    Cns002    Con     Bo0002     1.000     2.20000 Angstrom
- - - - - - - - - - - - - - - - - - - - - - - - - - - - - - - - - 
    3    Cns003    Con     An0001     1.000   180.00000   Degree
- - - - - - - - - - - - - - - - - - - - - - - - - - - - - - - - - 


******************************************************************



 *** Long output written to logfile /mnt/storage/home/lb17101/optimizations/7/7_1.80_2.20.log ***


 Geometry optimization using default procedure for command CF-UKS-SCF

 Geometry written to block  1 of record 700

 SLAPAF optimizer by R. Lindh and Ignacio F. Galvan entered

 Constraints section
ConstraintsConstraintsConstraintsConstraintsConstraintsConstraintsConstraintsConstraintsConstraintsConstraints
ConstraintsConstraintsConstraintsConstraintsConstraintsConstraintsConstraintsConstraintsConstraintsConstraints
Constraints                                                                                        Constraints
Constraints                                 C O N S T R A I N T S                                  Constraints
Constraints                                                                                        Constraints

************************************************************************************************************************
BO0001 = BOND       H7    C1
BO0002 = BOND       H7    C17
AN0001 = ANGLE      C1    H7    C17
VALUES
BO0001 =      1.80000000 ANGSTROM
BO0002 =      2.20000000 ANGSTROM
AN0001 =    180.00000000 DEGREE
************************************************************************************************************************


 *************************************************************
 * Values of the primitive constraints                       *
 *************************************************************
 BO0001   : Bond Length=  2.310086 / Angstrom  4.365431 / bohr
 BO0002   : Bond Length=  1.100000 / Angstrom  2.078699 / bohr
  Valence angle close to end in range of definition
 AN0001   : Angle=      178.1204   / Degree    3.108788 / rad

 *******************************************
 * Values of the constraints   / au or rad *
 *******************************************
   Label        C         C0
 Cns001      4.365431  3.401507
 Cns002      2.078699  4.157397
 Cns003      3.108788  3.141593


 ITER.   ENERGY(OLD)    ENERGY(NEW)      DE          GRADMAX     GRADNORM    GRADRMS     STEPMAX     STEPLEN     STEPRMS   CPU-time
   1  -289.91799712  -289.91526603     0.00273108  0.00120714  0.00190236  0.00025197  0.10676007  0.26112587  0.00458116      3.46

 Constraints section
ConstraintsConstraintsConstraintsConstraintsConstraintsConstraintsConstraintsConstraintsConstraintsConstraints
ConstraintsConstraintsConstraintsConstraintsConstraintsConstraintsConstraintsConstraintsConstraintsConstraints
Constraints                                                                                        Constraints
Constraints                                 C O N S T R A I N T S                                  Constraints
Constraints                                                                                        Constraints

************************************************************************************************************************
BO0001 = BOND       H7    C1
BO0002 = BOND       H7    C17
AN0001 = ANGLE      C1    H7    C17
VALUES
BO0001 =      1.80000000 ANGSTROM
BO0002 =      2.20000000 ANGSTROM
AN0001 =    180.00000000 DEGREE
************************************************************************************************************************


 *************************************************************
 * Values of the primitive constraints                       *
 *************************************************************
 BO0001   : Bond Length=  2.276697 / Angstrom  4.302334 / bohr
 BO0002   : Bond Length=  1.172004 / Angstrom  2.214766 / bohr
  Valence angle close to end in range of definition
 AN0001   : Angle=      177.7346   / Degree    3.102055 / rad

 *******************************************
 * Values of the constraints   / au or rad *
 *******************************************
   Label        C         C0
 Cns001      4.302334  3.401507
 Cns002      2.214766  4.157397
 Cns003      3.102055  3.141593

   2  -289.91526603  -289.91119739     0.00406864  0.05368585  0.06662876  0.00882520  0.58886311  0.99653866  0.01748313      7.07

 Constraints section
ConstraintsConstraintsConstraintsConstraintsConstraintsConstraintsConstraintsConstraintsConstraintsConstraints
ConstraintsConstraintsConstraintsConstraintsConstraintsConstraintsConstraintsConstraintsConstraintsConstraints
Constraints                                                                                        Constraints
Constraints                                 C O N S T R A I N T S                                  Constraints
Constraints                                                                                        Constraints

************************************************************************************************************************
BO0001 = BOND       H7    C1
BO0002 = BOND       H7    C17
AN0001 = ANGLE      C1    H7    C17
VALUES
BO0001 =      1.80000000 ANGSTROM
BO0002 =      2.20000000 ANGSTROM
AN0001 =    180.00000000 DEGREE
************************************************************************************************************************


 *************************************************************
 * Values of the primitive constraints                       *
 *************************************************************
 BO0001   : Bond Length=  2.256693 / Angstrom  4.264532 / bohr
 BO0002   : Bond Length=  1.215142 / Angstrom  2.296286 / bohr
 AN0001   : Angle=      175.3141   / Degree    3.059808 / rad

 *******************************************
 * Values of the constraints   / au or rad *
 *******************************************
   Label        C         C0
 Cns001      4.264532  3.401507
 Cns002      2.296286  4.157397
 Cns003      3.059808  3.141593

   3  -289.91119739  -289.89494857     0.01624882  0.04892684  0.06262198  0.00829448  0.22494694  0.63765537  0.01118694     10.55

 Constraints section
ConstraintsConstraintsConstraintsConstraintsConstraintsConstraintsConstraintsConstraintsConstraintsConstraints
ConstraintsConstraintsConstraintsConstraintsConstraintsConstraintsConstraintsConstraintsConstraintsConstraints
Constraints                                                                                        Constraints
Constraints                                 C O N S T R A I N T S                                  Constraints
Constraints                                                                                        Constraints

************************************************************************************************************************
BO0001 = BOND       H7    C1
BO0002 = BOND       H7    C17
AN0001 = ANGLE      C1    H7    C17
VALUES
BO0001 =      1.80000000 ANGSTROM
BO0002 =      2.20000000 ANGSTROM
AN0001 =    180.00000000 DEGREE
************************************************************************************************************************


 *************************************************************
 * Values of the primitive constraints                       *
 *************************************************************
 BO0001   : Bond Length=  2.199176 / Angstrom  4.155841 / bohr
 BO0002   : Bond Length=  1.339178 / Angstrom  2.530679 / bohr
 AN0001   : Angle=      175.8458   / Degree    3.069088 / rad

 *******************************************
 * Values of the constraints   / au or rad *
 *******************************************
   Label        C         C0
 Cns001      4.155841  3.401507
 Cns002      2.530679  4.157397
 Cns003      3.069088  3.141593

   4  -289.89494857  -289.87999962     0.01494895  0.06891857  0.08977173  0.01189056  0.28221201  0.62121788  0.01089856     14.07

 Constraints section
ConstraintsConstraintsConstraintsConstraintsConstraintsConstraintsConstraintsConstraintsConstraintsConstraints
ConstraintsConstraintsConstraintsConstraintsConstraintsConstraintsConstraintsConstraintsConstraintsConstraints
Constraints                                                                                        Constraints
Constraints                                 C O N S T R A I N T S                                  Constraints
Constraints                                                                                        Constraints

************************************************************************************************************************
BO0001 = BOND       H7    C1
BO0002 = BOND       H7    C17
AN0001 = ANGLE      C1    H7    C17
VALUES
BO0001 =      1.80000000 ANGSTROM
BO0002 =      2.20000000 ANGSTROM
AN0001 =    180.00000000 DEGREE
************************************************************************************************************************


 *************************************************************
 * Values of the primitive constraints                       *
 *************************************************************
 BO0001   : Bond Length=  2.152894 / Angstrom  4.068381 / bohr
 BO0002   : Bond Length=  1.438985 / Angstrom  2.719287 / bohr
 AN0001   : Angle=      176.2732   / Degree    3.076547 / rad

 *******************************************
 * Values of the constraints   / au or rad *
 *******************************************
   Label        C         C0
 Cns001      4.068381  3.401507
 Cns002      2.719287  4.157397
 Cns003      3.076547  3.141593

   5  -289.87999962  -289.86380005     0.01619957  0.07251736  0.10526344  0.01394248  0.33154415  0.67549306  0.01185076     17.68

 Constraints section
ConstraintsConstraintsConstraintsConstraintsConstraintsConstraintsConstraintsConstraintsConstraintsConstraints
ConstraintsConstraintsConstraintsConstraintsConstraintsConstraintsConstraintsConstraintsConstraintsConstraints
Constraints                                                                                        Constraints
Constraints                                 C O N S T R A I N T S                                  Constraints
Constraints                                                                                        Constraints

************************************************************************************************************************
BO0001 = BOND       H7    C1
BO0002 = BOND       H7    C17
AN0001 = ANGLE      C1    H7    C17
VALUES
BO0001 =      1.80000000 ANGSTROM
BO0002 =      2.20000000 ANGSTROM
AN0001 =    180.00000000 DEGREE
************************************************************************************************************************


 *************************************************************
 * Values of the primitive constraints                       *
 *************************************************************
 BO0001   : Bond Length=  2.106638 / Angstrom  3.980970 / bohr
 BO0002   : Bond Length=  1.538736 / Angstrom  2.907789 / bohr
 AN0001   : Angle=      176.7447   / Degree    3.084777 / rad

 *******************************************
 * Values of the constraints   / au or rad *
 *******************************************
   Label        C         C0
 Cns001      3.980970  3.401507
 Cns002      2.907789  4.157397
 Cns003      3.084777  3.141593

   6  -289.86380005  -289.84607886     0.01772118  0.11240132  0.13903655  0.01841584  0.15351762  0.34098945  0.00598227     21.47

 Constraints section
ConstraintsConstraintsConstraintsConstraintsConstraintsConstraintsConstraintsConstraintsConstraintsConstraints
ConstraintsConstraintsConstraintsConstraintsConstraintsConstraintsConstraintsConstraintsConstraintsConstraints
Constraints                                                                                        Constraints
Constraints                                 C O N S T R A I N T S                                  Constraints
Constraints                                                                                        Constraints

************************************************************************************************************************
BO0001 = BOND       H7    C1
BO0002 = BOND       H7    C17
AN0001 = ANGLE      C1    H7    C17
VALUES
BO0001 =      1.80000000 ANGSTROM
BO0002 =      2.20000000 ANGSTROM
AN0001 =    180.00000000 DEGREE
************************************************************************************************************************


 *************************************************************
 * Values of the primitive constraints                       *
 *************************************************************
 BO0001   : Bond Length=  2.059916 / Angstrom  3.892677 / bohr
 BO0002   : Bond Length=  1.639492 / Angstrom  3.098191 / bohr
 AN0001   : Angle=      177.2389   / Degree    3.093402 / rad

 *******************************************
 * Values of the constraints   / au or rad *
 *******************************************
   Label        C         C0
 Cns001      3.892677  3.401507
 Cns002      3.098191  4.157397
 Cns003      3.093402  3.141593

   7  -289.84607886  -289.82355094     0.02252793  0.17475244  0.21539235  0.02852941  0.06951456  0.13542185  0.00237582     25.55

 Constraints section
ConstraintsConstraintsConstraintsConstraintsConstraintsConstraintsConstraintsConstraintsConstraintsConstraints
ConstraintsConstraintsConstraintsConstraintsConstraintsConstraintsConstraintsConstraintsConstraintsConstraints
Constraints                                                                                        Constraints
Constraints                                 C O N S T R A I N T S                                  Constraints
Constraints                                                                                        Constraints

************************************************************************************************************************
BO0001 = BOND       H7    C1
BO0002 = BOND       H7    C17
AN0001 = ANGLE      C1    H7    C17
VALUES
BO0001 =      1.80000000 ANGSTROM
BO0002 =      2.20000000 ANGSTROM
AN0001 =    180.00000000 DEGREE
************************************************************************************************************************


 *************************************************************
 * Values of the primitive constraints                       *
 *************************************************************
 BO0001   : Bond Length=  2.026553 / Angstrom  3.829630 / bohr
 BO0002   : Bond Length=  1.711440 / Angstrom  3.234152 / bohr
  Valence angle close to end in range of definition
 AN0001   : Angle=      177.5866   / Degree    3.099471 / rad

 *******************************************
 * Values of the constraints   / au or rad *
 *******************************************
   Label        C         C0
 Cns001      3.829630  3.401507
 Cns002      3.234152  4.157397
 Cns003      3.099471  3.141593

   8  -289.82355094  -289.82268933     0.00086161  0.30737406  0.39911115  0.05286356  0.46868107  0.98067645  0.01720485     29.50

 Constraints section
ConstraintsConstraintsConstraintsConstraintsConstraintsConstraintsConstraintsConstraintsConstraintsConstraints
ConstraintsConstraintsConstraintsConstraintsConstraintsConstraintsConstraintsConstraintsConstraintsConstraints
Constraints                                                                                        Constraints
Constraints                                 C O N S T R A I N T S                                  Constraints
Constraints                                                                                        Constraints

************************************************************************************************************************
BO0001 = BOND       H7    C1
BO0002 = BOND       H7    C17
AN0001 = ANGLE      C1    H7    C17
VALUES
BO0001 =      1.80000000 ANGSTROM
BO0002 =      2.20000000 ANGSTROM
AN0001 =    180.00000000 DEGREE
************************************************************************************************************************


 *************************************************************
 * Values of the primitive constraints                       *
 *************************************************************
 BO0001   : Bond Length=  1.993190 / Angstrom  3.766584 / bohr
 BO0002   : Bond Length=  1.783386 / Angstrom  3.370111 / bohr
  Valence angle close to end in range of definition
 AN0001   : Angle=      177.8006   / Degree    3.103206 / rad

 *******************************************
 * Values of the constraints   / au or rad *
 *******************************************
   Label        C         C0
 Cns001      3.766584  3.401507
 Cns002      3.370111  4.157397
 Cns003      3.103206  3.141593

   9  -289.82268933  -289.81604616     0.00664317  0.21662006  0.27611446  0.03657225  0.46368786  1.02305542  0.01794834     33.74

 Constraints section
ConstraintsConstraintsConstraintsConstraintsConstraintsConstraintsConstraintsConstraintsConstraintsConstraints
ConstraintsConstraintsConstraintsConstraintsConstraintsConstraintsConstraintsConstraintsConstraintsConstraints
Constraints                                                                                        Constraints
Constraints                                 C O N S T R A I N T S                                  Constraints
Constraints                                                                                        Constraints

************************************************************************************************************************
BO0001 = BOND       H7    C1
BO0002 = BOND       H7    C17
AN0001 = ANGLE      C1    H7    C17
VALUES
BO0001 =      1.80000000 ANGSTROM
BO0002 =      2.20000000 ANGSTROM
AN0001 =    180.00000000 DEGREE
************************************************************************************************************************


 *************************************************************
 * Values of the primitive constraints                       *
 *************************************************************
 BO0001   : Bond Length=  1.927048 / Angstrom  3.641593 / bohr
 BO0002   : Bond Length=  1.926022 / Angstrom  3.639654 / bohr
  Valence angle close to end in range of definition
 AN0001   : Angle=      178.5399   / Degree    3.116109 / rad

 *******************************************
 * Values of the constraints   / au or rad *
 *******************************************
   Label        C         C0
 Cns001      3.641593  3.401507
 Cns002      3.639654  4.157397
 Cns003      3.116109  3.141593

  10  -289.81604616  -289.81009928     0.00594688  0.08843546  0.11989235  0.01588013  0.21431722  0.38431544  0.00674238     37.83

 Constraints section
ConstraintsConstraintsConstraintsConstraintsConstraintsConstraintsConstraintsConstraintsConstraintsConstraints
ConstraintsConstraintsConstraintsConstraintsConstraintsConstraintsConstraintsConstraintsConstraintsConstraints
Constraints                                                                                        Constraints
Constraints                                 C O N S T R A I N T S                                  Constraints
Constraints                                                                                        Constraints

************************************************************************************************************************
BO0001 = BOND       H7    C1
BO0002 = BOND       H7    C17
AN0001 = ANGLE      C1    H7    C17
VALUES
BO0001 =      1.80000000 ANGSTROM
BO0002 =      2.20000000 ANGSTROM
AN0001 =    180.00000000 DEGREE
************************************************************************************************************************


 *************************************************************
 * Values of the primitive constraints                       *
 *************************************************************
 BO0001   : Bond Length=  1.860870 / Angstrom  3.516535 / bohr
 BO0002   : Bond Length=  2.068733 / Angstrom  3.909340 / bohr
  Valence angle close to end in range of definition
 AN0001   : Angle=      179.2367   / Degree    3.128271 / rad

 *******************************************
 * Values of the constraints   / au or rad *
 *******************************************
   Label        C         C0
 Cns001      3.516535  3.401507
 Cns002      3.909340  4.157397
 Cns003      3.128271  3.141593

  11  -289.81009928  -289.80878453     0.00131475  0.05666929  0.08639431  0.01144321  0.13184423  0.37020679  0.00649486     41.77

 Constraints section
ConstraintsConstraintsConstraintsConstraintsConstraintsConstraintsConstraintsConstraintsConstraintsConstraints
ConstraintsConstraintsConstraintsConstraintsConstraintsConstraintsConstraintsConstraintsConstraintsConstraints
Constraints                                                                                        Constraints
Constraints                                 C O N S T R A I N T S                                  Constraints
Constraints                                                                                        Constraints

************************************************************************************************************************
BO0001 = BOND       H7    C1
BO0002 = BOND       H7    C17
AN0001 = ANGLE      C1    H7    C17
VALUES
BO0001 =      1.80000000 ANGSTROM
BO0002 =      2.20000000 ANGSTROM
AN0001 =    180.00000000 DEGREE
************************************************************************************************************************


 *************************************************************
 * Values of the primitive constraints                       *
 *************************************************************
 BO0001   : Bond Length=  1.827520 / Angstrom  3.453513 / bohr
 BO0002   : Bond Length=  2.140653 / Angstrom  4.045247 / bohr
  Valence angle close to end in range of definition
 AN0001   : Angle=      179.5785   / Degree    3.134237 / rad

 *******************************************
 * Values of the constraints   / au or rad *
 *******************************************
   Label        C         C0
 Cns001      3.453513  3.401507
 Cns002      4.045247  4.157397
 Cns003      3.134237  3.141593

  12  -289.80878453  -289.81149652    -0.00271198  0.08941020  0.12048285  0.01595834  0.18193520  0.57699502  0.01012272     45.40

 Constraints section
ConstraintsConstraintsConstraintsConstraintsConstraintsConstraintsConstraintsConstraintsConstraintsConstraints
ConstraintsConstraintsConstraintsConstraintsConstraintsConstraintsConstraintsConstraintsConstraintsConstraints
Constraints                                                                                        Constraints
Constraints                                 C O N S T R A I N T S                                  Constraints
Constraints                                                                                        Constraints

************************************************************************************************************************
BO0001 = BOND       H7    C1
BO0002 = BOND       H7    C17
AN0001 = ANGLE      C1    H7    C17
VALUES
BO0001 =      1.80000000 ANGSTROM
BO0002 =      2.20000000 ANGSTROM
AN0001 =    180.00000000 DEGREE
************************************************************************************************************************


 *************************************************************
 * Values of the primitive constraints                       *
 *************************************************************
 BO0001   : Bond Length=  1.800000 / Angstrom  3.401507 / bohr
 BO0002   : Bond Length=  2.200000 / Angstrom  4.157397 / bohr
  Valence angle close to end in range of definition
 AN0001   : Angle=      179.5265   / Degree    3.133328 / rad

 *******************************************
 * Values of the constraints   / au or rad *
 *******************************************
   Label        C         C0
 Cns001      3.401507  3.401507
 Cns002      4.157397  4.157397
 Cns003      3.133328  3.141593

  13  -289.81149652  -289.81706841    -0.00557189  0.08689757  0.11809017  0.01564143  0.20156852  0.55546466  0.00974499     49.12

 Constraints section
ConstraintsConstraintsConstraintsConstraintsConstraintsConstraintsConstraintsConstraintsConstraintsConstraints
ConstraintsConstraintsConstraintsConstraintsConstraintsConstraintsConstraintsConstraintsConstraintsConstraints
Constraints                                                                                        Constraints
Constraints                                 C O N S T R A I N T S                                  Constraints
Constraints                                                                                        Constraints

************************************************************************************************************************
BO0001 = BOND       H7    C1
BO0002 = BOND       H7    C17
AN0001 = ANGLE      C1    H7    C17
VALUES
BO0001 =      1.80000000 ANGSTROM
BO0002 =      2.20000000 ANGSTROM
AN0001 =    180.00000000 DEGREE
************************************************************************************************************************


 *************************************************************
 * Values of the primitive constraints                       *
 *************************************************************
 BO0001   : Bond Length=  1.800000 / Angstrom  3.401507 / bohr
 BO0002   : Bond Length=  2.200000 / Angstrom  4.157397 / bohr
  Valence angle close to end in range of definition
 AN0001   : Angle=      179.9279   / Degree    3.140334 / rad

 *******************************************
 * Values of the constraints   / au or rad *
 *******************************************
   Label        C         C0
 Cns001      3.401507  3.401507
 Cns002      4.157397  4.157397
 Cns003      3.140334  3.141593

  14  -289.81706841  -289.81688252     0.00018588  0.04488682  0.05319017  0.00704521  0.31992052  0.80925383  0.01419744     53.17

 Constraints section
ConstraintsConstraintsConstraintsConstraintsConstraintsConstraintsConstraintsConstraintsConstraintsConstraints
ConstraintsConstraintsConstraintsConstraintsConstraintsConstraintsConstraintsConstraintsConstraintsConstraints
Constraints                                                                                        Constraints
Constraints                                 C O N S T R A I N T S                                  Constraints
Constraints                                                                                        Constraints

************************************************************************************************************************
BO0001 = BOND       H7    C1
BO0002 = BOND       H7    C17
AN0001 = ANGLE      C1    H7    C17
VALUES
BO0001 =      1.80000000 ANGSTROM
BO0002 =      2.20000000 ANGSTROM
AN0001 =    180.00000000 DEGREE
************************************************************************************************************************


 *************************************************************
 * Values of the primitive constraints                       *
 *************************************************************
 BO0001   : Bond Length=  1.800000 / Angstrom  3.401507 / bohr
 BO0002   : Bond Length=  2.200000 / Angstrom  4.157397 / bohr
  Valence angle close to end in range of definition
 AN0001   : Angle=      179.6177   / Degree    3.134920 / rad

 *******************************************
 * Values of the constraints   / au or rad *
 *******************************************
   Label        C         C0
 Cns001      3.401507  3.401507
 Cns002      4.157397  4.157397
 Cns003      3.134920  3.141593

  15  -289.81688252  -289.81754972    -0.00066719  0.04368404  0.05705064  0.00755654  0.36463061  0.80115489  0.01405535     56.99

 Constraints section
ConstraintsConstraintsConstraintsConstraintsConstraintsConstraintsConstraintsConstraintsConstraintsConstraints
ConstraintsConstraintsConstraintsConstraintsConstraintsConstraintsConstraintsConstraintsConstraintsConstraints
Constraints                                                                                        Constraints
Constraints                                 C O N S T R A I N T S                                  Constraints
Constraints                                                                                        Constraints

************************************************************************************************************************
BO0001 = BOND       H7    C1
BO0002 = BOND       H7    C17
AN0001 = ANGLE      C1    H7    C17
VALUES
BO0001 =      1.80000000 ANGSTROM
BO0002 =      2.20000000 ANGSTROM
AN0001 =    180.00000000 DEGREE
************************************************************************************************************************


 *************************************************************
 * Values of the primitive constraints                       *
 *************************************************************
 BO0001   : Bond Length=  1.800000 / Angstrom  3.401507 / bohr
 BO0002   : Bond Length=  2.200000 / Angstrom  4.157397 / bohr
  Valence angle close to end in range of definition
 AN0001   : Angle=      179.0282   / Degree    3.124631 / rad

 *******************************************
 * Values of the constraints   / au or rad *
 *******************************************
   Label        C         C0
 Cns001      3.401507  3.401507
 Cns002      4.157397  4.157397
 Cns003      3.124631  3.141593

  16  -289.81754972  -289.81769053    -0.00014081  0.04430145  0.05857232  0.00775809  0.19147607  0.34588985  0.00606824     60.84

 Constraints section
ConstraintsConstraintsConstraintsConstraintsConstraintsConstraintsConstraintsConstraintsConstraintsConstraints
ConstraintsConstraintsConstraintsConstraintsConstraintsConstraintsConstraintsConstraintsConstraintsConstraints
Constraints                                                                                        Constraints
Constraints                                 C O N S T R A I N T S                                  Constraints
Constraints                                                                                        Constraints

************************************************************************************************************************
BO0001 = BOND       H7    C1
BO0002 = BOND       H7    C17
AN0001 = ANGLE      C1    H7    C17
VALUES
BO0001 =      1.80000000 ANGSTROM
BO0002 =      2.20000000 ANGSTROM
AN0001 =    180.00000000 DEGREE
************************************************************************************************************************


 *************************************************************
 * Values of the primitive constraints                       *
 *************************************************************
 BO0001   : Bond Length=  1.800000 / Angstrom  3.401507 / bohr
 BO0002   : Bond Length=  2.200000 / Angstrom  4.157397 / bohr
  Valence angle close to end in range of definition
 AN0001   : Angle=      179.6713   / Degree    3.135856 / rad

 *******************************************
 * Values of the constraints   / au or rad *
 *******************************************
   Label        C         C0
 Cns001      3.401507  3.401507
 Cns002      4.157397  4.157397
 Cns003      3.135856  3.141593

  17  -289.81769053  -289.81782409    -0.00013356  0.04414282  0.05708172  0.00756066  0.25224946  0.43128455  0.00756640     64.40

 Constraints section
ConstraintsConstraintsConstraintsConstraintsConstraintsConstraintsConstraintsConstraintsConstraintsConstraints
ConstraintsConstraintsConstraintsConstraintsConstraintsConstraintsConstraintsConstraintsConstraintsConstraints
Constraints                                                                                        Constraints
Constraints                                 C O N S T R A I N T S                                  Constraints
Constraints                                                                                        Constraints

************************************************************************************************************************
BO0001 = BOND       H7    C1
BO0002 = BOND       H7    C17
AN0001 = ANGLE      C1    H7    C17
VALUES
BO0001 =      1.80000000 ANGSTROM
BO0002 =      2.20000000 ANGSTROM
AN0001 =    180.00000000 DEGREE
************************************************************************************************************************


 *************************************************************
 * Values of the primitive constraints                       *
 *************************************************************
 BO0001   : Bond Length=  1.800000 / Angstrom  3.401507 / bohr
 BO0002   : Bond Length=  2.200000 / Angstrom  4.157397 / bohr
  Valence angle close to end in range of definition
 AN0001   : Angle=      179.7896   / Degree    3.137920 / rad

 *******************************************
 * Values of the constraints   / au or rad *
 *******************************************
   Label        C         C0
 Cns001      3.401507  3.401507
 Cns002      4.157397  4.157397
 Cns003      3.137920  3.141593

  18  -289.81782409  -289.81719916     0.00062492  0.04427558  0.05445390  0.00721260  0.39214412  1.04872204  0.01839863     68.46

 Constraints section
ConstraintsConstraintsConstraintsConstraintsConstraintsConstraintsConstraintsConstraintsConstraintsConstraints
ConstraintsConstraintsConstraintsConstraintsConstraintsConstraintsConstraintsConstraintsConstraintsConstraints
Constraints                                                                                        Constraints
Constraints                                 C O N S T R A I N T S                                  Constraints
Constraints                                                                                        Constraints

************************************************************************************************************************
BO0001 = BOND       H7    C1
BO0002 = BOND       H7    C17
AN0001 = ANGLE      C1    H7    C17
VALUES
BO0001 =      1.80000000 ANGSTROM
BO0002 =      2.20000000 ANGSTROM
AN0001 =    180.00000000 DEGREE
************************************************************************************************************************


 *************************************************************
 * Values of the primitive constraints                       *
 *************************************************************
 BO0001   : Bond Length=  1.800000 / Angstrom  3.401507 / bohr
 BO0002   : Bond Length=  2.200000 / Angstrom  4.157397 / bohr
 AN0001   : Angle=      175.0285   / Degree    3.054824 / rad

 *******************************************
 * Values of the constraints   / au or rad *
 *******************************************
   Label        C         C0
 Cns001      3.401507  3.401507
 Cns002      4.157397  4.157397
 Cns003      3.054824  3.141593

  19  -289.81719916  -289.81769756    -0.00049839  0.04382547  0.05919205  0.00784018  0.53877657  1.28382674  0.02252328     72.64

 Constraints section
ConstraintsConstraintsConstraintsConstraintsConstraintsConstraintsConstraintsConstraintsConstraintsConstraints
ConstraintsConstraintsConstraintsConstraintsConstraintsConstraintsConstraintsConstraintsConstraintsConstraints
Constraints                                                                                        Constraints
Constraints                                 C O N S T R A I N T S                                  Constraints
Constraints                                                                                        Constraints

************************************************************************************************************************
BO0001 = BOND       H7    C1
BO0002 = BOND       H7    C17
AN0001 = ANGLE      C1    H7    C17
VALUES
BO0001 =      1.80000000 ANGSTROM
BO0002 =      2.20000000 ANGSTROM
AN0001 =    180.00000000 DEGREE
************************************************************************************************************************


 *************************************************************
 * Values of the primitive constraints                       *
 *************************************************************
 BO0001   : Bond Length=  1.800000 / Angstrom  3.401507 / bohr
 BO0002   : Bond Length=  2.200000 / Angstrom  4.157398 / bohr
  Valence angle close to end in range of definition
 AN0001   : Angle=      179.1397   / Degree    3.126578 / rad

 *******************************************
 * Values of the constraints   / au or rad *
 *******************************************
   Label        C         C0
 Cns001      3.401507  3.401507
 Cns002      4.157398  4.157397
 Cns003      3.126578  3.141593

  20  -289.81769756  -289.81799501    -0.00029745  0.04393715  0.05419454  0.00717824  0.13825807  0.27446842  0.00481524     76.13

 Constraints section
ConstraintsConstraintsConstraintsConstraintsConstraintsConstraintsConstraintsConstraintsConstraintsConstraints
ConstraintsConstraintsConstraintsConstraintsConstraintsConstraintsConstraintsConstraintsConstraintsConstraints
Constraints                                                                                        Constraints
Constraints                                 C O N S T R A I N T S                                  Constraints
Constraints                                                                                        Constraints

************************************************************************************************************************
BO0001 = BOND       H7    C1
BO0002 = BOND       H7    C17
AN0001 = ANGLE      C1    H7    C17
VALUES
BO0001 =      1.80000000 ANGSTROM
BO0002 =      2.20000000 ANGSTROM
AN0001 =    180.00000000 DEGREE
************************************************************************************************************************


 *************************************************************
 * Values of the primitive constraints                       *
 *************************************************************
 BO0001   : Bond Length=  1.800000 / Angstrom  3.401507 / bohr
 BO0002   : Bond Length=  2.200000 / Angstrom  4.157397 / bohr
  Valence angle close to end in range of definition
 AN0001   : Angle=      179.6937   / Degree    3.136246 / rad

 *******************************************
 * Values of the constraints   / au or rad *
 *******************************************
   Label        C         C0
 Cns001      3.401507  3.401507
 Cns002      4.157397  4.157397
 Cns003      3.136246  3.141593

  21  -289.81799501  -289.81814231    -0.00014730  0.04421917  0.05564619  0.00737052  0.45450498  0.99522119  0.01746002     80.01

 Constraints section
ConstraintsConstraintsConstraintsConstraintsConstraintsConstraintsConstraintsConstraintsConstraintsConstraints
ConstraintsConstraintsConstraintsConstraintsConstraintsConstraintsConstraintsConstraintsConstraintsConstraints
Constraints                                                                                        Constraints
Constraints                                 C O N S T R A I N T S                                  Constraints
Constraints                                                                                        Constraints

************************************************************************************************************************
BO0001 = BOND       H7    C1
BO0002 = BOND       H7    C17
AN0001 = ANGLE      C1    H7    C17
VALUES
BO0001 =      1.80000000 ANGSTROM
BO0002 =      2.20000000 ANGSTROM
AN0001 =    180.00000000 DEGREE
************************************************************************************************************************


 *************************************************************
 * Values of the primitive constraints                       *
 *************************************************************
 BO0001   : Bond Length=  1.800000 / Angstrom  3.401507 / bohr
 BO0002   : Bond Length=  2.200000 / Angstrom  4.157397 / bohr
 AN0001   : Angle=      176.3760   / Degree    3.078342 / rad

 *******************************************
 * Values of the constraints   / au or rad *
 *******************************************
   Label        C         C0
 Cns001      3.401507  3.401507
 Cns002      4.157397  4.157397
 Cns003      3.078342  3.141593

  22  -289.81814231  -289.81831887    -0.00017656  0.04483601  0.06018844  0.00797215  0.44018296  0.89659774  0.01572978     83.93

 Constraints section
ConstraintsConstraintsConstraintsConstraintsConstraintsConstraintsConstraintsConstraintsConstraintsConstraints
ConstraintsConstraintsConstraintsConstraintsConstraintsConstraintsConstraintsConstraintsConstraintsConstraints
Constraints                                                                                        Constraints
Constraints                                 C O N S T R A I N T S                                  Constraints
Constraints                                                                                        Constraints

************************************************************************************************************************
BO0001 = BOND       H7    C1
BO0002 = BOND       H7    C17
AN0001 = ANGLE      C1    H7    C17
VALUES
BO0001 =      1.80000000 ANGSTROM
BO0002 =      2.20000000 ANGSTROM
AN0001 =    180.00000000 DEGREE
************************************************************************************************************************


 *************************************************************
 * Values of the primitive constraints                       *
 *************************************************************
 BO0001   : Bond Length=  1.800000 / Angstrom  3.401507 / bohr
 BO0002   : Bond Length=  2.200000 / Angstrom  4.157397 / bohr
 AN0001   : Angle=      177.2491   / Degree    3.093580 / rad

 *******************************************
 * Values of the constraints   / au or rad *
 *******************************************
   Label        C         C0
 Cns001      3.401507  3.401507
 Cns002      4.157397  4.157397
 Cns003      3.093580  3.141593

  23  -289.81831887  -289.81820188     0.00011699  0.04482191  0.05454156  0.00722421  0.38396405  1.02213442  0.01793218     87.77

 Constraints section
ConstraintsConstraintsConstraintsConstraintsConstraintsConstraintsConstraintsConstraintsConstraintsConstraints
ConstraintsConstraintsConstraintsConstraintsConstraintsConstraintsConstraintsConstraintsConstraintsConstraints
Constraints                                                                                        Constraints
Constraints                                 C O N S T R A I N T S                                  Constraints
Constraints                                                                                        Constraints

************************************************************************************************************************
BO0001 = BOND       H7    C1
BO0002 = BOND       H7    C17
AN0001 = ANGLE      C1    H7    C17
VALUES
BO0001 =      1.80000000 ANGSTROM
BO0002 =      2.20000000 ANGSTROM
AN0001 =    180.00000000 DEGREE
************************************************************************************************************************


 *************************************************************
 * Values of the primitive constraints                       *
 *************************************************************
 BO0001   : Bond Length=  1.800000 / Angstrom  3.401507 / bohr
 BO0002   : Bond Length=  2.200000 / Angstrom  4.157397 / bohr
  Valence angle close to end in range of definition
 AN0001   : Angle=      178.4708   / Degree    3.114903 / rad

 *******************************************
 * Values of the constraints   / au or rad *
 *******************************************
   Label        C         C0
 Cns001      3.401507  3.401507
 Cns002      4.157397  4.157397
 Cns003      3.114903  3.141593

  24  -289.81820188  -289.81740747     0.00079441  0.04480983  0.05784907  0.00766230  0.52774632  1.35304589  0.02373765     91.84

 Constraints section
ConstraintsConstraintsConstraintsConstraintsConstraintsConstraintsConstraintsConstraintsConstraintsConstraints
ConstraintsConstraintsConstraintsConstraintsConstraintsConstraintsConstraintsConstraintsConstraintsConstraints
Constraints                                                                                        Constraints
Constraints                                 C O N S T R A I N T S                                  Constraints
Constraints                                                                                        Constraints

************************************************************************************************************************
BO0001 = BOND       H7    C1
BO0002 = BOND       H7    C17
AN0001 = ANGLE      C1    H7    C17
VALUES
BO0001 =      1.80000000 ANGSTROM
BO0002 =      2.20000000 ANGSTROM
AN0001 =    180.00000000 DEGREE
************************************************************************************************************************


 *************************************************************
 * Values of the primitive constraints                       *
 *************************************************************
 BO0001   : Bond Length=  1.800000 / Angstrom  3.401507 / bohr
 BO0002   : Bond Length=  2.200000 / Angstrom  4.157397 / bohr
  Valence angle close to end in range of definition
 AN0001   : Angle=      179.8916   / Degree    3.139700 / rad

 *******************************************
 * Values of the constraints   / au or rad *
 *******************************************
   Label        C         C0
 Cns001      3.401507  3.401507
 Cns002      4.157397  4.157397
 Cns003      3.139700  3.141593

  25  -289.81740747  -289.81833690    -0.00092943  0.04409007  0.05495606  0.00727911  0.45448337  1.17725388  0.02065358     96.06

 Constraints section
ConstraintsConstraintsConstraintsConstraintsConstraintsConstraintsConstraintsConstraintsConstraintsConstraints
ConstraintsConstraintsConstraintsConstraintsConstraintsConstraintsConstraintsConstraintsConstraintsConstraints
Constraints                                                                                        Constraints
Constraints                                 C O N S T R A I N T S                                  Constraints
Constraints                                                                                        Constraints

************************************************************************************************************************
BO0001 = BOND       H7    C1
BO0002 = BOND       H7    C17
AN0001 = ANGLE      C1    H7    C17
VALUES
BO0001 =      1.80000000 ANGSTROM
BO0002 =      2.20000000 ANGSTROM
AN0001 =    180.00000000 DEGREE
************************************************************************************************************************


 *************************************************************
 * Values of the primitive constraints                       *
 *************************************************************
 BO0001   : Bond Length=  1.800000 / Angstrom  3.401507 / bohr
 BO0002   : Bond Length=  2.200000 / Angstrom  4.157397 / bohr
  Valence angle close to end in range of definition
 AN0001   : Angle=      177.9517   / Degree    3.105842 / rad

 *******************************************
 * Values of the constraints   / au or rad *
 *******************************************
   Label        C         C0
 Cns001      3.401507  3.401507
 Cns002      4.157397  4.157397
 Cns003      3.105842  3.141593

  26  -289.81833690  -289.81819126     0.00014564  0.04485913  0.06136913  0.00812854  0.37783163  0.85806067  0.01505370    100.15

 Constraints section
ConstraintsConstraintsConstraintsConstraintsConstraintsConstraintsConstraintsConstraintsConstraintsConstraints
ConstraintsConstraintsConstraintsConstraintsConstraintsConstraintsConstraintsConstraintsConstraintsConstraints
Constraints                                                                                        Constraints
Constraints                                 C O N S T R A I N T S                                  Constraints
Constraints                                                                                        Constraints

************************************************************************************************************************
BO0001 = BOND       H7    C1
BO0002 = BOND       H7    C17
AN0001 = ANGLE      C1    H7    C17
VALUES
BO0001 =      1.80000000 ANGSTROM
BO0002 =      2.20000000 ANGSTROM
AN0001 =    180.00000000 DEGREE
************************************************************************************************************************


 *************************************************************
 * Values of the primitive constraints                       *
 *************************************************************
 BO0001   : Bond Length=  1.800000 / Angstrom  3.401507 / bohr
 BO0002   : Bond Length=  2.200000 / Angstrom  4.157397 / bohr
  Valence angle close to end in range of definition
 AN0001   : Angle=      178.6883   / Degree    3.118700 / rad

 *******************************************
 * Values of the constraints   / au or rad *
 *******************************************
   Label        C         C0
 Cns001      3.401507  3.401507
 Cns002      4.157397  4.157397
 Cns003      3.118700  3.141593

  27  -289.81819126  -289.81816094     0.00003032  0.04470330  0.05273819  0.00698534  0.52015092  1.02021487  0.01789851    104.34

 Constraints section
ConstraintsConstraintsConstraintsConstraintsConstraintsConstraintsConstraintsConstraintsConstraintsConstraints
ConstraintsConstraintsConstraintsConstraintsConstraintsConstraintsConstraintsConstraintsConstraintsConstraints
Constraints                                                                                        Constraints
Constraints                                 C O N S T R A I N T S                                  Constraints
Constraints                                                                                        Constraints

************************************************************************************************************************
BO0001 = BOND       H7    C1
BO0002 = BOND       H7    C17
AN0001 = ANGLE      C1    H7    C17
VALUES
BO0001 =      1.80000000 ANGSTROM
BO0002 =      2.20000000 ANGSTROM
AN0001 =    180.00000000 DEGREE
************************************************************************************************************************


 *************************************************************
 * Values of the primitive constraints                       *
 *************************************************************
 BO0001   : Bond Length=  1.800000 / Angstrom  3.401507 / bohr
 BO0002   : Bond Length=  2.200000 / Angstrom  4.157397 / bohr
 AN0001   : Angle=      176.7391   / Degree    3.084679 / rad

 *******************************************
 * Values of the constraints   / au or rad *
 *******************************************
   Label        C         C0
 Cns001      3.401507  3.401507
 Cns002      4.157397  4.157397
 Cns003      3.084679  3.141593

  28  -289.81816094  -289.81839974    -0.00023880  0.04499870  0.06178650  0.00818382  0.31157174  0.64598189  0.01133302    108.42

 Constraints section
ConstraintsConstraintsConstraintsConstraintsConstraintsConstraintsConstraintsConstraintsConstraintsConstraints
ConstraintsConstraintsConstraintsConstraintsConstraintsConstraintsConstraintsConstraintsConstraintsConstraints
Constraints                                                                                        Constraints
Constraints                                 C O N S T R A I N T S                                  Constraints
Constraints                                                                                        Constraints

************************************************************************************************************************
BO0001 = BOND       H7    C1
BO0002 = BOND       H7    C17
AN0001 = ANGLE      C1    H7    C17
VALUES
BO0001 =      1.80000000 ANGSTROM
BO0002 =      2.20000000 ANGSTROM
AN0001 =    180.00000000 DEGREE
************************************************************************************************************************


 *************************************************************
 * Values of the primitive constraints                       *
 *************************************************************
 BO0001   : Bond Length=  1.800000 / Angstrom  3.401507 / bohr
 BO0002   : Bond Length=  2.200000 / Angstrom  4.157397 / bohr
  Valence angle close to end in range of definition
 AN0001   : Angle=      179.9769   / Degree    3.141190 / rad

 *******************************************
 * Values of the constraints   / au or rad *
 *******************************************
   Label        C         C0
 Cns001      3.401507  3.401507
 Cns002      4.157397  4.157397
 Cns003      3.141190  3.141593

  29  -289.81839974  -289.81833032     0.00006942  0.04486412  0.05379006  0.00712467  0.24227270  0.38106091  0.00668528    112.64

 Constraints section
ConstraintsConstraintsConstraintsConstraintsConstraintsConstraintsConstraintsConstraintsConstraintsConstraints
ConstraintsConstraintsConstraintsConstraintsConstraintsConstraintsConstraintsConstraintsConstraintsConstraints
Constraints                                                                                        Constraints
Constraints                                 C O N S T R A I N T S                                  Constraints
Constraints                                                                                        Constraints

************************************************************************************************************************
BO0001 = BOND       H7    C1
BO0002 = BOND       H7    C17
AN0001 = ANGLE      C1    H7    C17
VALUES
BO0001 =      1.80000000 ANGSTROM
BO0002 =      2.20000000 ANGSTROM
AN0001 =    180.00000000 DEGREE
************************************************************************************************************************


 *************************************************************
 * Values of the primitive constraints                       *
 *************************************************************
 BO0001   : Bond Length=  1.800000 / Angstrom  3.401507 / bohr
 BO0002   : Bond Length=  2.200000 / Angstrom  4.157397 / bohr
  Valence angle close to end in range of definition
 AN0001   : Angle=      177.9416   / Degree    3.105667 / rad

 *******************************************
 * Values of the constraints   / au or rad *
 *******************************************
   Label        C         C0
 Cns001      3.401507  3.401507
 Cns002      4.157397  4.157397
 Cns003      3.105667  3.141593

  30  -289.81833032  -289.81838288    -0.00005257  0.04449516  0.05326682  0.00705536  0.18575200  0.42428530  0.00744360    116.35

 Constraints section
ConstraintsConstraintsConstraintsConstraintsConstraintsConstraintsConstraintsConstraintsConstraintsConstraints
ConstraintsConstraintsConstraintsConstraintsConstraintsConstraintsConstraintsConstraintsConstraintsConstraints
Constraints                                                                                        Constraints
Constraints                                 C O N S T R A I N T S                                  Constraints
Constraints                                                                                        Constraints

************************************************************************************************************************
BO0001 = BOND       H7    C1
BO0002 = BOND       H7    C17
AN0001 = ANGLE      C1    H7    C17
VALUES
BO0001 =      1.80000000 ANGSTROM
BO0002 =      2.20000000 ANGSTROM
AN0001 =    180.00000000 DEGREE
************************************************************************************************************************


 *************************************************************
 * Values of the primitive constraints                       *
 *************************************************************
 BO0001   : Bond Length=  1.800000 / Angstrom  3.401507 / bohr
 BO0002   : Bond Length=  2.200000 / Angstrom  4.157397 / bohr
  Valence angle close to end in range of definition
 AN0001   : Angle=      179.6346   / Degree    3.135215 / rad

 *******************************************
 * Values of the constraints   / au or rad *
 *******************************************
   Label        C         C0
 Cns001      3.401507  3.401507
 Cns002      4.157397  4.157397
 Cns003      3.135215  3.141593

  31  -289.81838288  -289.81842035    -0.00003746  0.04469702  0.06610096  0.00875529  0.24896340  0.48555865  0.00851857    120.09

 Constraints section
ConstraintsConstraintsConstraintsConstraintsConstraintsConstraintsConstraintsConstraintsConstraintsConstraints
ConstraintsConstraintsConstraintsConstraintsConstraintsConstraintsConstraintsConstraintsConstraintsConstraints
Constraints                                                                                        Constraints
Constraints                                 C O N S T R A I N T S                                  Constraints
Constraints                                                                                        Constraints

************************************************************************************************************************
BO0001 = BOND       H7    C1
BO0002 = BOND       H7    C17
AN0001 = ANGLE      C1    H7    C17
VALUES
BO0001 =      1.80000000 ANGSTROM
[...]
   13      0.501D-06      0.190D-06      -290.16221635    790.741011   -0.24364   -0.16647    3.32521    9      6.8    104.6
   14      0.336D-06      0.108D-06      -290.16221635    790.740865   -0.24364   -0.16648    3.32522    9      6.6    111.2

 Final alpha occupancy:  28
 Final beta  occupancy:  27

 !UKS STATE  1.1 Energy              -290.162216350184
 Nuclear energy                       268.68364466
 One-electron energy                 -921.33208819
 Two-electron energy                  395.37043270
 Density functional                   -32.88420552     PBEX=-41.51635697 PBEC= -1.74693779
 Virial quotient                       -1.00667307
 !UKS STATE  1.1 Dipole moment         -0.24363599    -0.16647590     3.32522008
 Dipole moment /Debye                  -0.61922036    -0.42311181     8.45131284

 Orbital energies for positive spin:

         1.1          2.1          3.1          4.1          5.1          6.1          7.1          8.1          9.1         10.1
    -14.357865   -10.325201   -10.259969   -10.253315   -10.252858   -10.248349   -10.235335    -0.899151    -0.887474    -0.795243

        11.1         12.1         13.1         14.1         15.1         16.1         17.1         18.1         19.1         20.1
     -0.752908    -0.683078    -0.587820    -0.518578    -0.507193    -0.485349    -0.460981    -0.437538    -0.434086    -0.429004

        21.1         22.1         23.1         24.1         25.1         26.1         27.1         28.1         29.1         30.1
     -0.412873    -0.395928    -0.380358    -0.378153    -0.344621    -0.325977    -0.325920    -0.284118    -0.044588     0.020849

 Orbital energies for negative spin:

         1.1          2.1          3.1          4.1          5.1          6.1          7.1          8.1          9.1         10.1
    -14.356586   -10.319781   -10.260031   -10.253445   -10.252957   -10.236205   -10.235247    -0.887155    -0.879427    -0.793602

        11.1         12.1         13.1         14.1         15.1         16.1         17.1         18.1         19.1         20.1
     -0.751336    -0.681062    -0.578186    -0.509143    -0.505211    -0.481305    -0.457605    -0.433146    -0.428156    -0.411994

        21.1         22.1         23.1         24.1         25.1         26.1         27.1         28.1         29.1         30.1
     -0.394218    -0.393101    -0.378144    -0.376596    -0.320873    -0.320817    -0.305938    -0.175336    -0.016791     0.022477


 HOMO     28.1    -0.284118 =      -7.7312eV
 LUMO    -28.1    -0.175336 =      -4.7711eV
 LUMO-HOMO         0.108782 =       2.9601eV

 EXPECTATION VALUE OF S**2:             0.77770122

 Occupation number threshold for pseudo-canonical orbitals: 1.9990 (occupied), 0.0010 (virtual)

 Number of pseudo-canonical occupied orbitals per symmetry:   24
 Number of active natural orbitals per symmetry:               7

 Natural orbitals saved to record    2204.2 (Orbital set 3)

 Orbital spaces for UNO-CAS (Min. occupation: 0.020  Max. occupation: 1.980):

 Closed:       27
 Active:        1


 **********************************************************************************************************************************
 DATASETS  * FILE   NREC   LENGTH (MB)   RECORD NAMES
              1      19       33.38       500      610      700      900      950      970     1001      129      960     1100   
                                          VAR    BASINP    GEOM    SYMINP    ZMAT    AOBASIS   BASIS     P2S    ABASIS      S 
                                         1400     1410     1200     1210     1080     1600     1650     1700     1800   
                                           T        V       H0       H01     AOSYM     SMH    MOLCAS    OPER     GRID   

              2      12       27.09       700     1000      520     2100     1800     2200      520(1)  2201     2202     1001   
                                         GEOM     BASIS   MCVARS     RHF     GRID      UKS    MCVARS     UKS      UKS     BASIS   
                                         2203     2204   
                                          UKS      UKS  

 PROGRAMS   *        TOTAL    DF-UKS    DF-UKS       INT    DF-UKS      OPTG    DF-UKS      OPTG    DF-UKS     DF-HF       INT
 CPU TIMES  *       883.97    111.31      4.29      0.21      2.33    540.58     25.70    193.39      2.89      2.80      0.33
 REAL TIME  *       899.35 SEC
 DISK USED  *        60.56 MB (local),      242.23 MB (total)
 SF USED    *        34.96 MB
 GA USED    *         3.27 MB       (max)       2.04 MB       (current)
 **********************************************************************************************************************************

 Density functional group PBE0=PBEX+PBEC
 Functional: PBEX(Automatically generated (new) PBEX)                          Gradient terms: 1
 Functional: PBEC(Automatically generated (new) PBEC)                          Gradient terms: 1
 Use libxcgrid:  F
 Use grid at  1800.2


 Exact exchange will be calculated, factor:  0.2500

 Functional: PBEX                      Factor:  0.7500
 Functional: PBEC                      Factor:  1.0000

  234265 words reserved for DFT integration

 PROGRAM * UKS-SCF (Unrestricted Kohn-Sham)     Authors: W. Meyer, H.-J. Werner, P.J. Knowles, 1993

 NUMBER OF ELECTRONS:      28+   27-    SPACE SYMMETRY=1    SPIN SYMMETRY: Doublet 
 CONVERGENCE THRESHOLDS:    1.00E-06 (Density)    1.00E-06 (Energy)
 INTEGRAL THRESHOLDS:       1.00E-11 (Initial)    1.00E-11 (Final)
 MAX. NUMBER OF ITERATIONS:       60
 INTERPOLATION TYPE:            DIIS
 INTERPOLATION STEPS:              2 (START)      1 (STEP)
 LEVEL SHIFTS:                 -0.20 (ALPHA)  -0.20 (BETA) 



 Use fine grid record 1800.2 for energy threshold  1.0D-06
 Molecular orbitals read from record     2204.2  Type=UKS/ALPHA (state 1.1)
 Molecular orbitals read from record     2204.2  Type=UKS/BETA (state 1.1)

 Molecular orbital dump at record        2205.2

 Initial alpha occupation  28
 Initial beta  occupation  27

 Direct Fock-matrix evaluation.        Author: H.-J. Werner (1996)

 Integral Threshold:                  0.1D-10

 ITERATION   DDIFF            GRAD            ENERGY        2-EL.EN.            DIPOLE MOMENTS         DIIS   CPU(IT)  CPU(TOT)
    1      0.000D+00      0.000D+00      -290.16193806    790.741422   -0.24364   -0.16648    3.32522    0     10.0     10.0
    2      0.395D-04      0.816D-05      -290.16193969    790.737870   -0.24368   -0.16644    3.32530    1      8.8     18.8
    3      0.123D-04      0.145D-05      -290.16193978    790.738831   -0.24372   -0.16643    3.32535    2      8.6     27.4
    4      0.395D-05      0.270D-06      -290.16193979    790.738521   -0.24375   -0.16642    3.32532    3      8.3     35.6
    5      0.911D-06      0.113D-06      -290.16193979    790.738889   -0.24377   -0.16643    3.32539    4      7.9     43.5
    6      0.264D-06      0.809D-07      -290.16193979    790.738862   -0.24376   -0.16642    3.32534    5      7.5     51.0

 Final alpha occupancy:  28
 Final beta  occupancy:  27

 !UKS STATE  1.1 Energy              -290.161939786512
 Nuclear energy                       268.68364466
 One-electron energy                 -921.33109540
 Two-electron energy                  395.36943105
 Density functional                   -32.88392009     PBEX=-41.51591619 PBEC= -1.74698295
 Virial quotient                       -1.00668379
 !UKS STATE  1.1 Dipole moment         -0.24376252    -0.16642222     3.32533650
 Dipole moment /Debye                  -0.61954194    -0.42297540     8.45160874

 Orbital energies for positive spin:

         1.1          2.1          3.1          4.1          5.1          6.1          7.1          8.1          9.1         10.1
    -14.357886   -10.325243   -10.260002   -10.253370   -10.252916   -10.248371   -10.235389    -0.899139    -0.887484    -0.795255

        11.1         12.1         13.1         14.1         15.1         16.1         17.1         18.1         19.1         20.1
     -0.752924    -0.683085    -0.587827    -0.518590    -0.507204    -0.485365    -0.460986    -0.437540    -0.434083    -0.429021

        21.1         22.1         23.1         24.1         25.1         26.1         27.1         28.1         29.1         30.1
     -0.412882    -0.395940    -0.380359    -0.378159    -0.344603    -0.325978    -0.325922    -0.284109    -0.044626     0.020807

 Orbital energies for negative spin:

         1.1          2.1          3.1          4.1          5.1          6.1          7.1          8.1          9.1         10.1
    -14.356609   -10.319825   -10.260064   -10.253499   -10.253015   -10.236224   -10.235301    -0.887143    -0.879439    -0.793615

        11.1         12.1         13.1         14.1         15.1         16.1         17.1         18.1         19.1         20.1
     -0.751352    -0.681069    -0.578196    -0.509157    -0.505223    -0.481324    -0.457613    -0.433150    -0.428174    -0.412003

        21.1         22.1         23.1         24.1         25.1         26.1         27.1         28.1         29.1         30.1
     -0.394222    -0.393096    -0.378147    -0.376602    -0.320876    -0.320819    -0.305914    -0.175331    -0.016817     0.022433


 HOMO     28.1    -0.284109 =      -7.7310eV
 LUMO    -28.1    -0.175331 =      -4.7710eV
 LUMO-HOMO         0.108779 =       2.9600eV

 EXPECTATION VALUE OF S**2:             0.77769417

 Occupation number threshold for pseudo-canonical orbitals: 1.9990 (occupied), 0.0010 (virtual)

 Number of pseudo-canonical occupied orbitals per symmetry:   24
 Number of active natural orbitals per symmetry:               7

 Natural orbitals saved to record    2205.2 (Orbital set 3)

 Orbital spaces for UNO-CAS (Min. occupation: 0.020  Max. occupation: 1.980):

 Closed:       27
 Active:        1


 **********************************************************************************************************************************
 DATASETS  * FILE   NREC   LENGTH (MB)   RECORD NAMES
              1      19       33.38       500      610      700      900      950      970     1001      129      960     1100   
                                          VAR    BASINP    GEOM    SYMINP    ZMAT    AOBASIS   BASIS     P2S    ABASIS      S 
                                         1400     1410     1200     1210     1080     1600     1650     1700     1800   
                                           T        V       H0       H01     AOSYM     SMH    MOLCAS    OPER     GRID   

              2      13       32.94       700     1000      520     2100     1800     2200      520(1)  2201     2202     1001   
                                         GEOM     BASIS   MCVARS     RHF     GRID      UKS    MCVARS     UKS      UKS     BASIS   
                                         2203     2204     2205   
                                          UKS      UKS      UKS  

 PROGRAMS   *        TOTAL   UKS-SCF    DF-UKS    DF-UKS       INT    DF-UKS      OPTG    DF-UKS      OPTG    DF-UKS     DF-HF
 CPU TIMES  *       935.10     51.12    111.31      4.29      0.21      2.33    540.58     25.70    193.39      2.89      2.80
 REAL TIME  *       950.52 SEC
 DISK USED  *        66.41 MB (local),      265.65 MB (total)
 SF USED    *        34.96 MB
 GA USED    *         3.27 MB       (max)       2.04 MB       (current)
 **********************************************************************************************************************************

 Density functional group B3LYP=B88+DIRAC+LYP+VWN5
 Functional: B88(Automatically generated (new) B88)                            Gradient terms: 1
 Functional: DIRAC(Automatically generated (new) DIRAC)                        Gradient terms: 0
 Functional: LYP(Automatically generated (new) LYP)                            Gradient terms: 1
 Functional: VWN5(Automatically generated (new) VWN5)                          Gradient terms: 0
 Use libxcgrid:  F
 Use grid at  1800.2


 Exact exchange will be calculated, factor:  0.2000

 Functional: B88                       Factor:  0.7200
 Functional: DIRAC                     Factor:  0.0800
 Functional: LYP                       Factor:  0.8100
 Functional: VWN5                      Factor:  0.1900

  234265 words reserved for DFT integration

 PROGRAM * UKS-SCF (Unrestricted Kohn-Sham)     Authors: W. Meyer, H.-J. Werner, P.J. Knowles, 1993

 NUMBER OF ELECTRONS:      28+   27-    SPACE SYMMETRY=1    SPIN SYMMETRY: Doublet 
 CONVERGENCE THRESHOLDS:    1.00E-06 (Density)    1.00E-06 (Energy)
 INTEGRAL THRESHOLDS:       1.00E-11 (Initial)    1.00E-11 (Final)
 MAX. NUMBER OF ITERATIONS:       60
 INTERPOLATION TYPE:            DIIS
 INTERPOLATION STEPS:              2 (START)      1 (STEP)
 LEVEL SHIFTS:                 -0.20 (ALPHA)  -0.20 (BETA) 



 Use fine grid record 1800.2 for energy threshold  1.0D-06
 Molecular orbitals read from record     2205.2  Type=UKS/ALPHA (state 1.1)
 Molecular orbitals read from record     2205.2  Type=UKS/BETA (state 1.1)

 Molecular orbital dump at record        2206.2

 Initial alpha occupation  28
 Initial beta  occupation  27

 Direct Fock-matrix evaluation.        Author: H.-J. Werner (1996)

 Integral Threshold:                  0.1D-10

 ITERATION   DDIFF            GRAD            ENERGY        2-EL.EN.            DIPOLE MOMENTS         DIIS   CPU(IT)  CPU(TOT)
    1      0.000D+00      0.000D+00      -290.33832531    794.901870   -0.24376   -0.16642    3.32534    0     10.0     10.0
    2      0.100D-02      0.391D-03      -290.34246631    795.272515   -0.24553   -0.16714    3.34810    1      9.1     19.1
    3      0.178D-03      0.632D-04      -290.34268260    794.946616   -0.24412   -0.16712    3.33451    2      8.9     28.0
    4      0.958D-04      0.284D-04      -290.34272145    794.982990   -0.24550   -0.16757    3.35031    3      8.8     36.9
    5      0.328D-04      0.187D-04      -290.34273842    794.993138   -0.24461   -0.16712    3.34380    4      8.7     45.5
    6      0.252D-04      0.108D-04      -290.34274918    794.968576   -0.24512   -0.16735    3.35160    5      8.6     54.2
    7      0.155D-04      0.457D-05      -290.34275619    794.977549   -0.24545   -0.16763    3.35523    6      8.6     62.8
    8      0.110D-04      0.300D-05      -290.34275972    794.969138   -0.24587   -0.16783    3.36193    7      8.5     71.3
    9      0.652D-05      0.154D-05      -290.34276036    794.970009   -0.24600   -0.16799    3.36473    8      8.5     79.8
   10      0.174D-05      0.407D-06      -290.34276039    794.970183   -0.24611   -0.16803    3.36538    9      8.1     87.9
   11      0.627D-06      0.183D-06      -290.34276039    794.970115   -0.24611   -0.16806    3.36561    9      7.9     95.9
   12      0.392D-06      0.940D-07      -290.34276039    794.970105   -0.24612   -0.16806    3.36577    9      7.7    103.6

 Final alpha occupancy:  28
 Final beta  occupancy:  27

 !UKS STATE  1.1 Energy              -290.342760392222
 Nuclear energy                       268.68364466
 One-electron energy                 -921.34310223
 Two-electron energy                  397.48505249
 Density functional                   -35.16835531     B88=-41.78807155 DIRAC=-37.54914896 LYP= -1.75861508 VWN5= -3.43438772
 Virial quotient                       -1.00620982
 !UKS STATE  1.1 Dipole moment         -0.24612083    -0.16805863     3.36577082
 Dipole moment /Debye                  -0.62553579    -0.42713445     8.55437579

 Orbital energies for positive spin:

         1.1          2.1          3.1          4.1          5.1          6.1          7.1          8.1          9.1         10.1
    -14.288457   -10.269404   -10.207483   -10.202132   -10.201758   -10.191581   -10.183551    -0.871448    -0.862101    -0.772437

        11.1         12.1         13.1         14.1         15.1         16.1         17.1         18.1         19.1         20.1
     -0.731905    -0.663518    -0.570867    -0.503572    -0.492983    -0.471583    -0.448309    -0.426233    -0.417521    -0.414957

        21.1         22.1         23.1         24.1         25.1         26.1         27.1         28.1         29.1         30.1
     -0.402171    -0.385084    -0.370467    -0.368363    -0.331707    -0.311132    -0.311080    -0.273691    -0.052520     0.011083

 Orbital energies for negative spin:

         1.1          2.1          3.1          4.1          5.1          6.1          7.1          8.1          9.1         10.1
    -14.286911   -10.264712   -10.207495   -10.202207   -10.201806   -10.183472   -10.180576    -0.859891    -0.855266    -0.770962

        11.1         12.1         13.1         14.1         15.1         16.1         17.1         18.1         19.1         20.1
     -0.730380    -0.661705    -0.562643    -0.495611    -0.491235    -0.468063    -0.445382    -0.422296    -0.416722    -0.401312

        21.1         22.1         23.1         24.1         25.1         26.1         27.1         28.1         29.1         30.1
     -0.383249    -0.377879    -0.368502    -0.366907    -0.305894    -0.305845    -0.296743    -0.181683    -0.025701     0.012133


 HOMO     28.1    -0.273691 =      -7.4475eV
 LUMO    -28.1    -0.181683 =      -4.9438eV
 LUMO-HOMO         0.092008 =       2.5037eV

 EXPECTATION VALUE OF S**2:             0.76802060

 Occupation number threshold for pseudo-canonical orbitals: 1.9990 (occupied), 0.0010 (virtual)

 Number of pseudo-canonical occupied orbitals per symmetry:   26
 Number of active natural orbitals per symmetry:               3

 Natural orbitals saved to record    2206.2 (Orbital set 3)

 Orbital spaces for UNO-CAS (Min. occupation: 0.020  Max. occupation: 1.980):

 Closed:       27
 Active:        1


 **********************************************************************************************************************************
 DATASETS  * FILE   NREC   LENGTH (MB)   RECORD NAMES
              1      19       33.38       500      610      700      900      950      970     1001      129      960     1100   
                                          VAR    BASINP    GEOM    SYMINP    ZMAT    AOBASIS   BASIS     P2S    ABASIS      S 
                                         1400     1410     1200     1210     1080     1600     1650     1700     1800   
                                           T        V       H0       H01     AOSYM     SMH    MOLCAS    OPER     GRID   

              2      14       38.80       700     1000      520     2100     1800     2200      520(1)  2201     2202     1001   
                                         GEOM     BASIS   MCVARS     RHF     GRID      UKS    MCVARS     UKS      UKS     BASIS   
                                         2203     2204     2205     2206   
                                          UKS      UKS      UKS      UKS  

 PROGRAMS   *        TOTAL   UKS-SCF   UKS-SCF    DF-UKS    DF-UKS       INT    DF-UKS      OPTG    DF-UKS      OPTG    DF-UKS
 CPU TIMES  *      1038.75    103.64     51.12    111.31      4.29      0.21      2.33    540.58     25.70    193.39      2.89
 REAL TIME  *      1054.29 SEC
 DISK USED  *        72.27 MB (local),      289.08 MB (total)
 SF USED    *        34.96 MB
 GA USED    *         3.27 MB       (max)       2.04 MB       (current)
 **********************************************************************************************************************************

 UB3LYP/TZVP//CF-UKS/SVP energy=   -290.342760392222

         UKS-SCF         UKS-SCF          DF-UKS          DF-UKS          DF-UKS    OPTG(DF-UKS)          DF-UKS    OPTG(DF-UKS)
   -290.34276039   -290.16193979   -290.16221635   -290.14009632   -289.81749478   -289.84662824   -289.84551184   -289.81865831
 **********************************************************************************************************************************
 Molpro calculation terminated with 1 warning(s)
