
 Primary working directories    : /mnt/storage/home/lb17101/scratch/1379456/molpro.oHmzPiXLAG
 Secondary working directories  : /mnt/storage/home/lb17101/scratch/1379456/molpro.oHmzPiXLAG
 Wavefunction directory         : /mnt/storage/home/lb17101/optimizations/7/
 Main file repository           : /mnt/storage/home/lb17101/optimizations/7/

 id        : simonbennie

 Nodes                   nprocs
 compute071.bc4.acrc.priv    4

 Using customized tuning parameters: mindgm=1; mindgv=20; mindgc=4; mindgr=1; noblas=0; minvec=7
 default implementation of scratch files=sf  


 Variables initialized (924), CPU time= 0.01 sec
 memory,536,m
 
 geomtyp=xyz
 
 nosym
 noorient
 gdirect
 angstrom
 
 geometry=input.xyz
 Including file /mnt/storage/home/lb17101/optimizations/7/input.xyz
 
 set,charge=0
 
 basis=svp
 df-hf
 {cf-uks,pbe;}
 {optg,method=slrf,maxiter=50;
 constraint,1.800,angstrom,bond,atoms=[H7,C1]
 constraint,1.600,angstrom,bond,atoms=[H7,C17]
 constraint,180,deg,angle,atoms=[C1,H7,C17]
 {slopt;}}
 {cf-uks,pbe0;}
 {optg,method=slrf,maxiter=20;
 constraint,1.800,angstrom,bond,atoms=[H7,C1]
 constraint,1.600,angstrom,bond,atoms=[H7,C17]
 constraint,180,deg,angle,atoms=[C1,H7,C17]
 {slopt;}}
 {cf-uks,pbe;}
 basis=tzvp
 {cf-uks,pbe;}
 {cf-uks,pbe0;}
 {uks,pbe0;}
 {uks,b3lyp;}
 Commands  initialized (760), CPU time= 0.01 sec, 616 directives.
 Default parameters read. Elapsed time= 0.38 sec

 Checking input...
 Passed
1


                                         ***  PROGRAM SYSTEM MOLPRO  ***
                                       Copyright, TTI GmbH Stuttgart, 2015
                                    Version 2018.1 linked Oct 16 2018 14:32:03


 **********************************************************************************************************************************
 LABEL *                                                                                 
  64 bit mpp version                                                                     DATE: 10-Nov-18          TIME: 02:32:31  
 **********************************************************************************************************************************

 SHA1:             d673ad554fd0a1ae99daa449513f8b88cca0f763
 **********************************************************************************************************************************
 SETTING GEOMTYP        =    XYZ

 Variable memory set to  536000000 words,  buffer space 

 ZSYMEL=NOSYM
 ZUNIT=ANG

 SETTING CHARGE         =     0.00000000D+00                                  
 SETTING BASIS          =    SVP


 Recomputing integrals since basis changed


 Using spherical harmonics

 Library entry C      S def2-SVP             selected for orbital group  1
 Library entry C      P def2-SVP             selected for orbital group  1
 Library entry C      D def2-SVP             selected for orbital group  1
 Library entry H      S def2-SVP             selected for orbital group  2
 Library entry H      P def2-SVP             selected for orbital group  2
 Library entry N      S def2-SVP             selected for orbital group  8
 Library entry N      P def2-SVP             selected for orbital group  8
 Library entry N      D def2-SVP             selected for orbital group  8


 PROGRAM * SEWARD (Integral evaluation for generally contracted gaussian basis sets)     Author: Roland Lindh, 1990

 Geometry written to block  1 of record 700


 Point group  C1  



 ATOMIC COORDINATES

 NR  ATOM    CHARGE       X              Y              Z

   1  C0      6.00  -15.316925113    4.888078256   -0.767052243
   2  C1      6.00  -12.509659000    4.644678157   -1.070390898
   3  H2      1.00  -16.346413757    3.266393148   -1.611352563
   4  H3      1.00  -16.060070410    6.659028964   -1.611398073
   5  H4      1.00  -15.867278179    4.939078915    1.276322047
   6  C5      6.00  -10.928940534    6.951542313   -0.623723353
   7  C6      6.00  -11.391119286    2.048705088   -0.721610816
   8  H7      1.00  -12.064532823    4.811752729   -5.409853371
   9  H8      1.00  -11.858594393    8.684827474   -1.350707090
  10  H9      1.00   -9.024283094    6.819447243   -1.489688335
  11  H10     1.00  -10.607924720    7.281743571    1.443810111
  12  H11     1.00  -12.564834386    0.660594741   -1.783784990
  13  H12     1.00  -11.651586181    1.480313562    1.306983776
  14  C13     6.00   -8.601100060    1.708416740   -1.418172702
  15  H14     1.00   -8.227734962    2.222762924   -3.417429662
  16  H15     1.00   -8.014177585   -0.286184374   -1.167620133
  17  H16     1.00   -7.341877758    2.878713852   -0.220497868
  18  C17     6.00  -11.862435348    4.823883071   -7.478668950
  19  N18     7.00  -11.637187328    4.827537747   -9.674272220

 Bond lengths in Bohr (Angstrom)

 1-2  2.834078506  1-3  2.098226034  1-4  2.097963589  1-5  2.116806098  2-6  2.831926023
     ( 1.499729759)     ( 1.110333401)     ( 1.110194521)     ( 1.120165547)     ( 1.498590715)

  2- 7  2.848131811   6- 9  2.096911801   6-10  2.096440894   6-11  2.118201749   7-12  2.105391044
       ( 1.507166448)       ( 1.109637938)       ( 1.109388745)       ( 1.120904093)       ( 1.114124961)

  7-13  2.122759513   7-14  2.895721310   8-18  2.078698735  14-15  2.097851731  14-16  2.094203473
       ( 1.123315958)       ( 1.532349726)       ( 1.099999999)       ( 1.110135328)       ( 1.108204753)

 14-17  2.095151819  18-19  2.207130206
       ( 1.108706596)       ( 1.167963007)

 Bond angles

  1-2-6  117.77855146   1-2-7  117.01248036   2-1-3  112.12069309   2-1-4  112.35172672

  2- 1- 5  111.27971143   2- 6- 9  111.78876771   2- 6-10  112.99419310   2- 6-11  111.44020680

  2- 7-12  108.67630802   2- 7-13  108.23366762   2- 7-14  117.13216098   3- 1- 4  108.46167851

  3- 1- 5  106.22951316   4- 1- 5  106.02553003   6- 2- 7  120.26137390   7-14-15  111.83345378

  7-14-16  110.68168460   7-14-17  112.08183597   8-18-19  179.63297686   9- 6-10  108.15949919

  9- 6-11  106.06536737  10- 6-11  105.98101855  12- 7-13  103.72019587  12- 7-14  109.77304899

 13- 7-14  108.45956817  15-14-16  107.31683745  15-14-17  107.50922167  16-14-17  107.16800153

 NUCLEAR CHARGE:                   55
 NUMBER OF PRIMITIVE AOS:         259
 NUMBER OF SYMMETRY AOS:          252
 NUMBER OF CONTRACTIONS:          158   (  158A   )
 NUMBER OF CORE ORBITALS:           7   (    7A   )
 NUMBER OF VALENCE ORBITALS:       40   (   40A   )


 NUCLEAR REPULSION ENERGY  275.70817015


 Eigenvalues of metric

         1 0.193E-02 0.310E-02 0.390E-02 0.405E-02 0.652E-02 0.110E-01 0.215E-01 0.232E-01


 OPERATOR DM      FOR CENTER  0  COORDINATES:    0.000000    0.000000    0.000000


 **********************************************************************************************************************************
 DATASETS  * FILE   NREC   LENGTH (MB)   RECORD NAMES
              1      18       31.21       500      610      700      900      950      970     1000      129      960     1100   
                                          VAR    BASINP    GEOM    SYMINP    ZMAT    AOBASIS   BASIS     P2S    ABASIS      S 
                                         1400     1410     1200     1210     1080     1600     1650     1700   
                                           T        V       H0       H01     AOSYM     SMH    MOLCAS    OPER   

 PROGRAMS   *        TOTAL       INT
 CPU TIMES  *         0.44      0.31
 REAL TIME  *         1.28 SEC
 DISK USED  *        31.83 MB (local),      127.32 MB (total)
 GA USED    *         0.00 MB       (max)       0.00 MB       (current)
 **********************************************************************************************************************************


 PROGRAM * RHF-SCF (OPEN SHELL)       Authors: W. Meyer, H.-J. Werner


 NUMBER OF ELECTRONS:      28+   27-    SPACE SYMMETRY=1    SPIN SYMMETRY: Doublet 
 CONVERGENCE THRESHOLDS:    1.00E-06 (Density)    1.00E-07 (Energy)
 INTEGRAL THRESHOLDS:       1.00E-11 (Initial)    1.00E-11 (Final)
 MAX. NUMBER OF ITERATIONS:       60
 INTERPOLATION TYPE:            DIIS
 INTERPOLATION STEPS:              2 (START)      1 (STEP)
 LEVEL SHIFTS:                 -0.60 (CLOSED) -0.30 (OPEN) 




 Basis set DEF2-SVP/JKFIT generated.     Number of basis functions:   560 

 Orbital guess generated from atomic densities. Full valence occupancy:   28
 Using density fitting in orbital guess

 Coulomb and exchange fitting
 Thresholds for fitting:       THRAO_COUL= 1.0D-14    THRAO_EXCH= 1.0D-12    THRMO= 1.0D-11    THRPROD= 1.0D-11    THRASM= 1.0D-11
                               THR2HLF=    1.0D-11

 Molecular orbital dump at record        2100.2

 Initial alpha occupancy:  28
 Initial beta  occupancy:  27
 Wave function symmetry:    1

 ITERATION   DDIFF            GRAD            ENERGY        2-EL.EN.            DIPOLE MOMENTS         DIIS   CPU(IT)  CPU(TOT)  ORB.
    1      0.000D+00      0.000D+00      -288.25653108    743.427118   -0.20611   -0.03282    2.24955    0      0.2      0.5     start
    2      0.000D+00      0.404D-02      -288.33743391    740.463678   -0.12968   -0.03912    1.76432    1      0.2      0.7     diag,B
    3      0.326D-02      0.159D-02      -288.35408585    740.537927   -0.13062   -0.04387    1.76760    2      0.2      0.9     diag,B
    4      0.172D-02      0.766D-03      -288.36085477    740.506910   -0.11869   -0.04677    1.67918    3      0.2      1.1     diag,B
    5      0.163D-02      0.217D-03      -288.36155294    740.466718   -0.11622   -0.04505    1.65893    4      0.2      1.3     diag,B
    6      0.673D-03      0.760D-04      -288.36165427    740.440907   -0.11505   -0.04372    1.64661    5      0.2      1.5     diag,B
    7      0.303D-03      0.227D-04      -288.36166362    740.433141   -0.11464   -0.04323    1.64196    6      0.2      1.6     fixocc
    8      0.786D-04      0.773D-05      -288.36166489    740.432495   -0.11448   -0.04309    1.64001    7      0.2      1.8     diag,B
    9      0.316D-04      0.272D-05      -288.36166507    740.432757   -0.11445   -0.04307    1.63943    8      0.2      2.0     diag,B
   10      0.174D-04      0.804D-06      -288.36166509    740.432894   -0.11445   -0.04308    1.63939    9      0.2      2.2     orth
   11      0.584D-05      0.243D-06      -288.36166509    740.432896   -0.11445   -0.04308    1.63942    9      0.2      2.4     diag,B
   12      0.155D-05      0.737D-07      -288.36166509    740.432889   -0.11445   -0.04308    1.63944    9      0.2      2.6     diag,B
   13      0.311D-06      0.320D-07      -288.36166509    740.432885   -0.11445   -0.04308    1.63944    0      0.2      2.8     orth

 Final alpha occupancy:  28
 Final beta  occupancy:  27

 !RHF STATE  1.1 Energy              -288.361665089847
 Nuclear energy                       275.70817015
 One-electron energy                 -934.28627784
 Two-electron energy                  370.21644260
 Virial quotient                       -1.00680784
 !RHF STATE  1.1 Dipole moment         -0.11445169    -0.04308226     1.63943652
 Dipole moment /Debye                  -0.29088811    -0.10949701     4.16675908

 Orbital energies:

         1.1          2.1          3.1          4.1          5.1          6.1          7.1          8.1          9.1         10.1
    -15.592641   -11.291335   -11.246750   -11.244969   -11.243934   -11.242577   -11.239168    -1.205717    -1.088407    -0.997104

        11.1         12.1         13.1         14.1         15.1         16.1         17.1         18.1         19.1         20.1
     -0.940315    -0.861368    -0.781930    -0.724005    -0.631077    -0.624398    -0.598168    -0.575224    -0.565807    -0.547432

        21.1         22.1         23.1         24.1         25.1         26.1         27.1         28.1         29.1         30.1
     -0.545110    -0.525552    -0.501852    -0.488453    -0.484725    -0.481223    -0.480751    -0.353407     0.152478     0.161665


 HOMO     28.1    -0.353407 =      -9.6167eV
 LUMO     29.1     0.152478 =       4.1492eV
 LUMO-HOMO         0.505885 =      13.7658eV


 **********************************************************************************************************************************
 DATASETS  * FILE   NREC   LENGTH (MB)   RECORD NAMES
              1      18       31.21       500      610      700      900      950      970     1000      129      960     1100   
                                          VAR    BASINP    GEOM    SYMINP    ZMAT    AOBASIS   BASIS     P2S    ABASIS      S 
                                         1400     1410     1200     1210     1080     1600     1650     1700   
                                           T        V       H0       H01     AOSYM     SMH    MOLCAS    OPER   

              2       4        3.88       700     1000      520     2100   
                                         GEOM     BASIS   MCVARS     RHF  

 PROGRAMS   *        TOTAL     DF-HF       INT
 CPU TIMES  *         3.23      2.79      0.31
 REAL TIME  *         4.27 SEC
 DISK USED  *        38.78 MB (local),      155.11 MB (total)
 SF USED    *        33.08 MB
 GA USED    *         3.27 MB       (max)       0.00 MB       (current)
 **********************************************************************************************************************************

 Density functional group PBE=PBEX+PBEC
 Functional: PBEX(Automatically generated (new) PBEX)                          Gradient terms: 1
 Functional: PBEC(Automatically generated (new) PBEC)                          Gradient terms: 1
 Use libxcgrid:  F
 Use grid at  1800.2

 Functional: PBEX                      Factor:  1.0000
 Functional: PBEC                      Factor:  1.0000

 Generated new metagrid on record  1800.2 with target accuracy 1.0D-06 and 65784 points in CPU time    0.4
 Computed new grid on record 1800.1 in CPU time    0.5
  129907 words reserved for DFT integration

 PROGRAM * UKS-SCF (Unrestricted Kohn-Sham)     Authors: W. Meyer, H.-J. Werner, P.J. Knowles, 1993

 NUMBER OF ELECTRONS:      28+   27-    SPACE SYMMETRY=1    SPIN SYMMETRY: Doublet 
 CONVERGENCE THRESHOLDS:    1.00E-06 (Density)    1.00E-06 (Energy)
 INTEGRAL THRESHOLDS:       1.00E-11 (Initial)    1.00E-11 (Final)
 MAX. NUMBER OF ITERATIONS:       60
 INTERPOLATION TYPE:            DIIS
 INTERPOLATION STEPS:              2 (START)      1 (STEP)
 LEVEL SHIFTS:                 -0.20 (ALPHA)  -0.20 (BETA) 



 Use fine grid record 1800.2 for energy threshold  1.0D-06

 Basis set DEF2-SVP/JFIT generated.      Number of basis functions:   475 
 Coulomb fitting
 Screening thresholds:    THRAO_COUL= 1.0D-14    THRAO= 1.0D-12    THROV= 1.0D-12

 Reserved 1 MW to cache 100.0% of significant integrals (4 MW global). CPU: 0.1 sec

 Molecular orbitals read from record     2100.2  Type=RHF/CANONICAL (state 1.1)

 Molecular orbital dump at record        2200.2

 Initial alpha occupation  28
 Initial beta  occupation  27

 ITERATION    DDIFF          GRAD             ENERGY        2-EL.EN.            DIPOLE MOMENTS         DIIS  CPU(IT) CPU(TOT)
    1      0.000D+00      0.000D+00      -289.87050375    823.934242   -0.11445   -0.04308    1.63944    0      0.2      0.3
    2      0.429D-02      0.217D-02      -289.91259013    827.062708   -0.10690   -0.04937    1.55566    1      0.2      0.4
    3      0.153D-02      0.457D-03      -289.91660101    825.696081   -0.10381   -0.04674    1.54245    2      0.2      0.6
    4      0.834D-03      0.208D-03      -289.91769905    826.227713   -0.10385   -0.05030    1.51656    3      0.2      0.8
    5      0.337D-03      0.928D-04      -289.91786070    826.157874   -0.10686   -0.04941    1.56732    4      0.2      0.9
    6      0.190D-03      0.897D-04      -289.91797801    826.078895   -0.10312   -0.04981    1.53883    5      0.2      1.1
    7      0.959D-04      0.220D-04      -289.91799471    826.097063   -0.10419   -0.05056    1.54440    6      0.2      1.2
    8      0.371D-04      0.875D-05      -289.91799683    826.094263   -0.10355   -0.05059    1.54414    7      0.2      1.4
    9      0.129D-04      0.279D-05      -289.91799707    826.096370   -0.10363   -0.05055    1.54438    8      0.2      1.6
   10      0.593D-05      0.130D-05      -289.91799711    826.094738   -0.10360   -0.05061    1.54427    8      0.2      1.7
   11      0.233D-05      0.298D-06      -289.91799711    826.094855   -0.10360   -0.05062    1.54421    8      0.2      1.9
   12      0.668D-06      0.111D-06      -289.91799712    826.094924   -0.10361   -0.05061    1.54421    8      0.2      2.0
   13      0.420D-06      0.682D-07      -289.91799712    826.094860   -0.10360   -0.05061    1.54419    7      0.2      2.2

 Final alpha occupancy:  28
 Final beta  occupancy:  27

 !UKS STATE  1.1 Energy              -289.917997115508
 Nuclear energy                       275.70817015
 One-electron energy                 -935.39562354
 Two-electron energy                  413.04742977
 Density functional                   -43.27797350     PBEX=-41.51503390 PBEC= -1.76293960
 Virial quotient                       -1.01214346
 !UKS STATE  1.1 Dipole moment         -0.10360472    -0.05061141     1.54418668
 Dipole moment /Debye                  -0.26331970    -0.12863294     3.92467397

 Orbital energies for positive spin:

         1.1          2.1          3.1          4.1          5.1          6.1          7.1          8.1          9.1         10.1
    -14.001646    -9.936594    -9.924487    -9.912447    -9.907742    -9.906695    -9.901996    -0.811440    -0.743548    -0.670299

        11.1         12.1         13.1         14.1         15.1         16.1         17.1         18.1         19.1         20.1
     -0.629061    -0.571142    -0.522383    -0.480687    -0.418081    -0.416680    -0.394820    -0.376360    -0.351639    -0.348992

        21.1         22.1         23.1         24.1         25.1         26.1         27.1         28.1         29.1         30.1
     -0.332703    -0.317068    -0.310681    -0.308824    -0.308464    -0.305407    -0.303193    -0.161479    -0.017647    -0.014435

 Orbital energies for negative spin:

         1.1          2.1          3.1          4.1          5.1          6.1          7.1          8.1          9.1         10.1
    -14.001645    -9.935992    -9.913073    -9.912263    -9.908386    -9.907369    -9.901869    -0.811127    -0.731794    -0.667411

        11.1         12.1         13.1         14.1         15.1         16.1         17.1         18.1         19.1         20.1
     -0.626776    -0.568035    -0.519294    -0.469213    -0.413309    -0.409254    -0.389743    -0.370902    -0.347691    -0.347279

        21.1         22.1         23.1         24.1         25.1         26.1         27.1         28.1         29.1         30.1
     -0.331599    -0.313815    -0.310378    -0.308083    -0.308056    -0.302630    -0.299344    -0.096959    -0.016958    -0.013646


 HOMO     28.1    -0.161479 =      -4.3941eV
 LUMO    -28.1    -0.096959 =      -2.6384eV
 LUMO-HOMO         0.064520 =       1.7557eV

 EXPECTATION VALUE OF S**2:             0.75315631

 Occupation number threshold for pseudo-canonical orbitals: 1.9990 (occupied), 0.0010 (virtual)

 Number of pseudo-canonical occupied orbitals per symmetry:   27
 Number of active natural orbitals per symmetry:               1

 Natural orbitals saved to record    2200.2 (Orbital set 3)

 Orbital spaces for UNO-CAS (Min. occupation: 0.020  Max. occupation: 1.980):

 Closed:       27
 Active:        1


 **********************************************************************************************************************************
 DATASETS  * FILE   NREC   LENGTH (MB)   RECORD NAMES
              1      19       31.21       500      610      700      900      950      970     1000      129      960     1100   
                                          VAR    BASINP    GEOM    SYMINP    ZMAT    AOBASIS   BASIS     P2S    ABASIS      S 
                                         1400     1410     1200     1210     1080     1600     1650     1700     1800   
                                           T        V       H0       H01     AOSYM     SMH    MOLCAS    OPER     GRID   

              2       6        7.61       700     1000      520     2100     1800     2200   
                                         GEOM     BASIS   MCVARS     RHF     GRID      UKS  

 PROGRAMS   *        TOTAL    DF-UKS     DF-HF       INT
 CPU TIMES  *         5.97      2.73      2.79      0.31
 REAL TIME  *         7.14 SEC
 DISK USED  *        38.89 MB (local),      155.54 MB (total)
 SF USED    *        33.08 MB
 GA USED    *         3.27 MB       (max)       2.17 MB       (current)
 **********************************************************************************************************************************


 PROGRAM * OPT (Geometry optimization)     Authors: F. Eckert and H.-J. Werner


 BFGS update of hessian


********** USER DEFINED INT/FIX/CONSTRAINTS ****************

List of primitive internal coordinates

     N      Name     Type   Natoms   Atom list

     1    Bo0001     Bond        2      H7   C1  
     2    Bo0002     Bond        2      H7   C17 
     3    An0001     Angle       3      C1   H7   C17 

List of user defined internal/fixed coordinates and constraints

- - - - - - - - - - - - - - - - - - - - - - - - - - - - - - - - - 
    N      Name   Type      Pname     Coeff       Value   Unit
- - - - - - - - - - - - - - - - - - - - - - - - - - - - - - - - - 
    1    Cns001    Con     Bo0001     1.000     1.80000 Angstrom
- - - - - - - - - - - - - - - - - - - - - - - - - - - - - - - - - 
    2    Cns002    Con     Bo0002     1.000     1.60000 Angstrom
- - - - - - - - - - - - - - - - - - - - - - - - - - - - - - - - - 
    3    Cns003    Con     An0001     1.000   180.00000   Degree
- - - - - - - - - - - - - - - - - - - - - - - - - - - - - - - - - 


******************************************************************



 *** Long output written to logfile /mnt/storage/home/lb17101/optimizations/7/7_1.80_1.60.log ***


 Geometry optimization using default procedure for command CF-UKS-SCF

 Geometry written to block  1 of record 700

 SLAPAF optimizer by R. Lindh and Ignacio F. Galvan entered

 Constraints section
ConstraintsConstraintsConstraintsConstraintsConstraintsConstraintsConstraintsConstraintsConstraintsConstraints
ConstraintsConstraintsConstraintsConstraintsConstraintsConstraintsConstraintsConstraintsConstraintsConstraints
Constraints                                                                                        Constraints
Constraints                                 C O N S T R A I N T S                                  Constraints
Constraints                                                                                        Constraints

************************************************************************************************************************
BO0001 = BOND       H7    C1
BO0002 = BOND       H7    C17
AN0001 = ANGLE      C1    H7    C17
VALUES
BO0001 =      1.80000000 ANGSTROM
BO0002 =      1.60000000 ANGSTROM
AN0001 =    180.00000000 DEGREE
************************************************************************************************************************


 *************************************************************
 * Values of the primitive constraints                       *
 *************************************************************
 BO0001   : Bond Length=  2.310086 / Angstrom  4.365431 / bohr
 BO0002   : Bond Length=  1.100000 / Angstrom  2.078699 / bohr
  Valence angle close to end in range of definition
 AN0001   : Angle=      178.1204   / Degree    3.108788 / rad

 *******************************************
 * Values of the constraints   / au or rad *
 *******************************************
   Label        C         C0
 Cns001      4.365431  3.401507
 Cns002      2.078699  3.023562
 Cns003      3.108788  3.141593


 ITER.   ENERGY(OLD)    ENERGY(NEW)      DE          GRADMAX     GRADNORM    GRADRMS     STEPMAX     STEPLEN     STEPRMS   CPU-time
   1  -289.91799712  -289.91646743     0.00152969  0.00120714  0.00190236  0.00025197  0.09922626  0.24862661  0.00436187      3.50

 Constraints section
ConstraintsConstraintsConstraintsConstraintsConstraintsConstraintsConstraintsConstraintsConstraintsConstraints
ConstraintsConstraintsConstraintsConstraintsConstraintsConstraintsConstraintsConstraintsConstraintsConstraints
Constraints                                                                                        Constraints
Constraints                                 C O N S T R A I N T S                                  Constraints
Constraints                                                                                        Constraints

************************************************************************************************************************
BO0001 = BOND       H7    C1
BO0002 = BOND       H7    C17
AN0001 = ANGLE      C1    H7    C17
VALUES
BO0001 =      1.80000000 ANGSTROM
BO0002 =      1.60000000 ANGSTROM
AN0001 =    180.00000000 DEGREE
************************************************************************************************************************


 *************************************************************
 * Values of the primitive constraints                       *
 *************************************************************
 BO0001   : Bond Length=  2.253418 / Angstrom  4.258343 / bohr
 BO0002   : Bond Length=  1.155548 / Angstrom  2.183669 / bohr
  Valence angle close to end in range of definition
 AN0001   : Angle=      177.8022   / Degree    3.103234 / rad

 *******************************************
 * Values of the constraints   / au or rad *
 *******************************************
   Label        C         C0
 Cns001      4.258343  3.401507
 Cns002      2.183669  3.023562
 Cns003      3.103234  3.141593

   2  -289.91646743  -289.91445838     0.00200905  0.03746234  0.04757481  0.00630144  0.12589607  0.24835670  0.00435714      6.95

 Constraints section
ConstraintsConstraintsConstraintsConstraintsConstraintsConstraintsConstraintsConstraintsConstraintsConstraints
ConstraintsConstraintsConstraintsConstraintsConstraintsConstraintsConstraintsConstraintsConstraintsConstraints
Constraints                                                                                        Constraints
Constraints                                 C O N S T R A I N T S                                  Constraints
Constraints                                                                                        Constraints

************************************************************************************************************************
BO0001 = BOND       H7    C1
BO0002 = BOND       H7    C17
AN0001 = ANGLE      C1    H7    C17
VALUES
BO0001 =      1.80000000 ANGSTROM
BO0002 =      1.60000000 ANGSTROM
AN0001 =    180.00000000 DEGREE
************************************************************************************************************************


 *************************************************************
 * Values of the primitive constraints                       *
 *************************************************************
 BO0001   : Bond Length=  2.221549 / Angstrom  4.198118 / bohr
 BO0002   : Bond Length=  1.186787 / Angstrom  2.242703 / bohr
 AN0001   : Angle=      176.4463   / Degree    3.079570 / rad

 *******************************************
 * Values of the constraints   / au or rad *
 *******************************************
   Label        C         C0
 Cns001      4.198118  3.401507
 Cns002      2.242703  3.023562
 Cns003      3.079570  3.141593

   3  -289.91445838  -289.90823807     0.00622030  0.03884597  0.05003734  0.00662761  0.52083502  1.29429671  0.02270696     10.48

 Constraints section
ConstraintsConstraintsConstraintsConstraintsConstraintsConstraintsConstraintsConstraintsConstraintsConstraints
ConstraintsConstraintsConstraintsConstraintsConstraintsConstraintsConstraintsConstraintsConstraintsConstraints
Constraints                                                                                        Constraints
Constraints                                 C O N S T R A I N T S                                  Constraints
Constraints                                                                                        Constraints

************************************************************************************************************************
BO0001 = BOND       H7    C1
BO0002 = BOND       H7    C17
AN0001 = ANGLE      C1    H7    C17
VALUES
BO0001 =      1.80000000 ANGSTROM
BO0002 =      1.60000000 ANGSTROM
AN0001 =    180.00000000 DEGREE
************************************************************************************************************************


 *************************************************************
 * Values of the primitive constraints                       *
 *************************************************************
 BO0001   : Bond Length=  2.164952 / Angstrom  4.091165 / bohr
 BO0002   : Bond Length=  1.242265 / Angstrom  2.347541 / bohr
 AN0001   : Angle=      176.3875   / Degree    3.078542 / rad

 *******************************************
 * Values of the constraints   / au or rad *
 *******************************************
   Label        C         C0
 Cns001      4.091165  3.401507
 Cns002      2.347541  3.023562
 Cns003      3.078542  3.141593

   4  -289.90823807  -289.89009649     0.01814158  0.05417456  0.07015594  0.00929238  0.28248393  0.66708315  0.01170321     14.01

 Constraints section
ConstraintsConstraintsConstraintsConstraintsConstraintsConstraintsConstraintsConstraintsConstraintsConstraints
ConstraintsConstraintsConstraintsConstraintsConstraintsConstraintsConstraintsConstraintsConstraintsConstraints
Constraints                                                                                        Constraints
Constraints                                 C O N S T R A I N T S                                  Constraints
Constraints                                                                                        Constraints

************************************************************************************************************************
BO0001 = BOND       H7    C1
BO0002 = BOND       H7    C17
AN0001 = ANGLE      C1    H7    C17
VALUES
BO0001 =      1.80000000 ANGSTROM
BO0002 =      1.60000000 ANGSTROM
AN0001 =    180.00000000 DEGREE
************************************************************************************************************************


 *************************************************************
 * Values of the primitive constraints                       *
 *************************************************************
 BO0001   : Bond Length=  2.010903 / Angstrom  3.800055 / bohr
 BO0002   : Bond Length=  1.393269 / Angstrom  2.632897 / bohr
  Valence angle close to end in range of definition
 AN0001   : Angle=      177.9072   / Degree    3.105066 / rad

 *******************************************
 * Values of the constraints   / au or rad *
 *******************************************
   Label        C         C0
 Cns001      3.800055  3.401507
 Cns002      2.632897  3.023562
 Cns003      3.105066  3.141593

   5  -289.89009649  -289.88181932     0.00827717  0.09055568  0.11501305  0.01523385  0.12470496  0.28161557  0.00494062     17.57

 Constraints section
ConstraintsConstraintsConstraintsConstraintsConstraintsConstraintsConstraintsConstraintsConstraintsConstraints
ConstraintsConstraintsConstraintsConstraintsConstraintsConstraintsConstraintsConstraintsConstraintsConstraints
Constraints                                                                                        Constraints
Constraints                                 C O N S T R A I N T S                                  Constraints
Constraints                                                                                        Constraints

************************************************************************************************************************
BO0001 = BOND       H7    C1
BO0002 = BOND       H7    C17
AN0001 = ANGLE      C1    H7    C17
VALUES
BO0001 =      1.80000000 ANGSTROM
BO0002 =      1.60000000 ANGSTROM
AN0001 =    180.00000000 DEGREE
************************************************************************************************************************


 *************************************************************
 * Values of the primitive constraints                       *
 *************************************************************
 BO0001   : Bond Length=  1.938649 / Angstrom  3.663516 / bohr
 BO0002   : Bond Length=  1.464093 / Angstrom  2.766736 / bohr
  Valence angle close to end in range of definition
 AN0001   : Angle=      178.4333   / Degree    3.114248 / rad

 *******************************************
 * Values of the constraints   / au or rad *
 *******************************************
   Label        C         C0
 Cns001      3.663516  3.401507
 Cns002      2.766736  3.023562
 Cns003      3.114248  3.141593

   6  -289.88181932  -289.87497957     0.00683975  0.10203628  0.12433237  0.01646822  0.18009026  0.58412727  0.01024785     21.37

 Constraints section
ConstraintsConstraintsConstraintsConstraintsConstraintsConstraintsConstraintsConstraintsConstraintsConstraints
ConstraintsConstraintsConstraintsConstraintsConstraintsConstraintsConstraintsConstraintsConstraintsConstraints
Constraints                                                                                        Constraints
Constraints                                 C O N S T R A I N T S                                  Constraints
Constraints                                                                                        Constraints

************************************************************************************************************************
BO0001 = BOND       H7    C1
BO0002 = BOND       H7    C17
AN0001 = ANGLE      C1    H7    C17
VALUES
BO0001 =      1.80000000 ANGSTROM
BO0002 =      1.60000000 ANGSTROM
AN0001 =    180.00000000 DEGREE
************************************************************************************************************************


 *************************************************************
 * Values of the primitive constraints                       *
 *************************************************************
 BO0001   : Bond Length=  1.882127 / Angstrom  3.556705 / bohr
 BO0002   : Bond Length=  1.519497 / Angstrom  2.871434 / bohr
 AN0001   : Angle=      177.0125   / Degree    3.089450 / rad

 *******************************************
 * Values of the constraints   / au or rad *
 *******************************************
   Label        C         C0
 Cns001      3.556705  3.401507
 Cns002      2.871434  3.023562
 Cns003      3.089450  3.141593

   7  -289.87497957  -289.86800279     0.00697678  0.06520727  0.09394636  0.01244350  0.20809765  0.58641745  0.01028803     25.17

 Constraints section
ConstraintsConstraintsConstraintsConstraintsConstraintsConstraintsConstraintsConstraintsConstraintsConstraints
ConstraintsConstraintsConstraintsConstraintsConstraintsConstraintsConstraintsConstraintsConstraintsConstraints
Constraints                                                                                        Constraints
Constraints                                 C O N S T R A I N T S                                  Constraints
Constraints                                                                                        Constraints

************************************************************************************************************************
BO0001 = BOND       H7    C1
BO0002 = BOND       H7    C17
AN0001 = ANGLE      C1    H7    C17
VALUES
BO0001 =      1.80000000 ANGSTROM
BO0002 =      1.60000000 ANGSTROM
AN0001 =    180.00000000 DEGREE
************************************************************************************************************************


 *************************************************************
 * Values of the primitive constraints                       *
 *************************************************************
 BO0001   : Bond Length=  1.804206 / Angstrom  3.409455 / bohr
 BO0002   : Bond Length=  1.595877 / Angstrom  3.015771 / bohr
  Valence angle close to end in range of definition
 AN0001   : Angle=      179.2870   / Degree    3.129148 / rad

 *******************************************
 * Values of the constraints   / au or rad *
 *******************************************
   Label        C         C0
 Cns001      3.409455  3.401507
 Cns002      3.015771  3.023562
 Cns003      3.129148  3.141593

   8  -289.86800279  -289.86729948     0.00070331  0.08738121  0.10739134  0.01422433  0.27089353  0.64565154  0.01132722     28.76

 Constraints section
ConstraintsConstraintsConstraintsConstraintsConstraintsConstraintsConstraintsConstraintsConstraintsConstraints
ConstraintsConstraintsConstraintsConstraintsConstraintsConstraintsConstraintsConstraintsConstraintsConstraints
Constraints                                                                                        Constraints
Constraints                                 C O N S T R A I N T S                                  Constraints
Constraints                                                                                        Constraints

************************************************************************************************************************
BO0001 = BOND       H7    C1
BO0002 = BOND       H7    C17
AN0001 = ANGLE      C1    H7    C17
VALUES
BO0001 =      1.80000000 ANGSTROM
BO0002 =      1.60000000 ANGSTROM
AN0001 =    180.00000000 DEGREE
************************************************************************************************************************


 *************************************************************
 * Values of the primitive constraints                       *
 *************************************************************
 BO0001   : Bond Length=  1.800000 / Angstrom  3.401507 / bohr
 BO0002   : Bond Length=  1.600000 / Angstrom  3.023562 / bohr
 AN0001   : Angle=      174.0300   / Degree    3.037396 / rad

 *******************************************
 * Values of the constraints   / au or rad *
 *******************************************
   Label        C         C0
 Cns001      3.401507  3.401507
 Cns002      3.023562  3.023562
 Cns003      3.037396  3.141593

   9  -289.86729948  -289.86873028    -0.00143080  0.11276735  0.13791887  0.01826780  0.35140750  0.66062450  0.01158990     32.30

 Constraints section
ConstraintsConstraintsConstraintsConstraintsConstraintsConstraintsConstraintsConstraintsConstraintsConstraints
ConstraintsConstraintsConstraintsConstraintsConstraintsConstraintsConstraintsConstraintsConstraintsConstraints
Constraints                                                                                        Constraints
Constraints                                 C O N S T R A I N T S                                  Constraints
Constraints                                                                                        Constraints

************************************************************************************************************************
BO0001 = BOND       H7    C1
BO0002 = BOND       H7    C17
AN0001 = ANGLE      C1    H7    C17
VALUES
BO0001 =      1.80000000 ANGSTROM
BO0002 =      1.60000000 ANGSTROM
AN0001 =    180.00000000 DEGREE
************************************************************************************************************************


 *************************************************************
 * Values of the primitive constraints                       *
 *************************************************************
 BO0001   : Bond Length=  1.800000 / Angstrom  3.401507 / bohr
 BO0002   : Bond Length=  1.600000 / Angstrom  3.023562 / bohr
  Valence angle close to end in range of definition
 AN0001   : Angle=      179.1371   / Degree    3.126532 / rad

 *******************************************
 * Values of the constraints   / au or rad *
 *******************************************
   Label        C         C0
 Cns001      3.401507  3.401507
 Cns002      3.023562  3.023562
 Cns003      3.126532  3.141593

  10  -289.86873028  -289.86903063    -0.00030035  0.10306657  0.12136720  0.01607548  0.28257381  0.47875557  0.00839922     35.92

 Constraints section
ConstraintsConstraintsConstraintsConstraintsConstraintsConstraintsConstraintsConstraintsConstraintsConstraints
ConstraintsConstraintsConstraintsConstraintsConstraintsConstraintsConstraintsConstraintsConstraintsConstraints
Constraints                                                                                        Constraints
Constraints                                 C O N S T R A I N T S                                  Constraints
Constraints                                                                                        Constraints

************************************************************************************************************************
BO0001 = BOND       H7    C1
BO0002 = BOND       H7    C17
AN0001 = ANGLE      C1    H7    C17
VALUES
BO0001 =      1.80000000 ANGSTROM
BO0002 =      1.60000000 ANGSTROM
AN0001 =    180.00000000 DEGREE
************************************************************************************************************************


 *************************************************************
 * Values of the primitive constraints                       *
 *************************************************************
 BO0001   : Bond Length=  1.800000 / Angstrom  3.401507 / bohr
 BO0002   : Bond Length=  1.600000 / Angstrom  3.023562 / bohr
 AN0001   : Angle=      174.8503   / Degree    3.051714 / rad

 *******************************************
 * Values of the constraints   / au or rad *
 *******************************************
   Label        C         C0
 Cns001      3.401507  3.401507
 Cns002      3.023562  3.023562
 Cns003      3.051714  3.141593

  11  -289.86903063  -289.86960390    -0.00057327  0.07901242  0.09540099  0.01263617  0.24526038  0.63334455  0.01111131     39.57

 Constraints section
ConstraintsConstraintsConstraintsConstraintsConstraintsConstraintsConstraintsConstraintsConstraintsConstraints
ConstraintsConstraintsConstraintsConstraintsConstraintsConstraintsConstraintsConstraintsConstraintsConstraints
Constraints                                                                                        Constraints
Constraints                                 C O N S T R A I N T S                                  Constraints
Constraints                                                                                        Constraints

************************************************************************************************************************
BO0001 = BOND       H7    C1
BO0002 = BOND       H7    C17
AN0001 = ANGLE      C1    H7    C17
VALUES
BO0001 =      1.80000000 ANGSTROM
BO0002 =      1.60000000 ANGSTROM
AN0001 =    180.00000000 DEGREE
************************************************************************************************************************


 *************************************************************
 * Values of the primitive constraints                       *
 *************************************************************
 BO0001   : Bond Length=  1.800000 / Angstrom  3.401507 / bohr
 BO0002   : Bond Length=  1.600000 / Angstrom  3.023562 / bohr
  Valence angle close to end in range of definition
 AN0001   : Angle=      179.0697   / Degree    3.125355 / rad

 *******************************************
 * Values of the constraints   / au or rad *
 *******************************************
   Label        C         C0
 Cns001      3.401507  3.401507
 Cns002      3.023562  3.023562
 Cns003      3.125355  3.141593

  12  -289.86960390  -289.86957883     0.00002508  0.06968347  0.08555805  0.01133244  0.23370645  0.49060046  0.00860703     42.98

 Constraints section
ConstraintsConstraintsConstraintsConstraintsConstraintsConstraintsConstraintsConstraintsConstraintsConstraints
ConstraintsConstraintsConstraintsConstraintsConstraintsConstraintsConstraintsConstraintsConstraintsConstraints
Constraints                                                                                        Constraints
Constraints                                 C O N S T R A I N T S                                  Constraints
Constraints                                                                                        Constraints

************************************************************************************************************************
BO0001 = BOND       H7    C1
BO0002 = BOND       H7    C17
AN0001 = ANGLE      C1    H7    C17
VALUES
BO0001 =      1.80000000 ANGSTROM
BO0002 =      1.60000000 ANGSTROM
AN0001 =    180.00000000 DEGREE
************************************************************************************************************************


 *************************************************************
 * Values of the primitive constraints                       *
 *************************************************************
 BO0001   : Bond Length=  1.800000 / Angstrom  3.401507 / bohr
 BO0002   : Bond Length=  1.600000 / Angstrom  3.023562 / bohr
  Valence angle close to end in range of definition
 AN0001   : Angle=      177.9519   / Degree    3.105847 / rad

 *******************************************
 * Values of the constraints   / au or rad *
 *******************************************
   Label        C         C0
 Cns001      3.401507  3.401507
 Cns002      3.023562  3.023562
 Cns003      3.105847  3.141593

  13  -289.86957883  -289.86953910     0.00003973  0.06995446  0.08634692  0.01143693  0.29362845  0.60220292  0.01056496     46.65

 Constraints section
ConstraintsConstraintsConstraintsConstraintsConstraintsConstraintsConstraintsConstraintsConstraintsConstraints
ConstraintsConstraintsConstraintsConstraintsConstraintsConstraintsConstraintsConstraintsConstraintsConstraints
Constraints                                                                                        Constraints
Constraints                                 C O N S T R A I N T S                                  Constraints
Constraints                                                                                        Constraints

************************************************************************************************************************
BO0001 = BOND       H7    C1
BO0002 = BOND       H7    C17
AN0001 = ANGLE      C1    H7    C17
VALUES
BO0001 =      1.80000000 ANGSTROM
BO0002 =      1.60000000 ANGSTROM
AN0001 =    180.00000000 DEGREE
************************************************************************************************************************


 *************************************************************
 * Values of the primitive constraints                       *
 *************************************************************
 BO0001   : Bond Length=  1.800000 / Angstrom  3.401507 / bohr
 BO0002   : Bond Length=  1.600000 / Angstrom  3.023562 / bohr
  Valence angle close to end in range of definition
 AN0001   : Angle=      177.7528   / Degree    3.102372 / rad

 *******************************************
 * Values of the constraints   / au or rad *
 *******************************************
   Label        C         C0
 Cns001      3.401507  3.401507
 Cns002      3.023562  3.023562
 Cns003      3.102372  3.141593

  14  -289.86953910  -289.86959299    -0.00005388  0.06165270  0.07905667  0.01047131  0.30070258  0.59684452  0.01047096     50.37

 Constraints section
ConstraintsConstraintsConstraintsConstraintsConstraintsConstraintsConstraintsConstraintsConstraintsConstraints
ConstraintsConstraintsConstraintsConstraintsConstraintsConstraintsConstraintsConstraintsConstraintsConstraints
Constraints                                                                                        Constraints
Constraints                                 C O N S T R A I N T S                                  Constraints
Constraints                                                                                        Constraints

************************************************************************************************************************
BO0001 = BOND       H7    C1
BO0002 = BOND       H7    C17
AN0001 = ANGLE      C1    H7    C17
VALUES
BO0001 =      1.80000000 ANGSTROM
BO0002 =      1.60000000 ANGSTROM
AN0001 =    180.00000000 DEGREE
************************************************************************************************************************


 *************************************************************
 * Values of the primitive constraints                       *
 *************************************************************
 BO0001   : Bond Length=  1.800000 / Angstrom  3.401507 / bohr
 BO0002   : Bond Length=  1.600000 / Angstrom  3.023562 / bohr
  Valence angle close to end in range of definition
 AN0001   : Angle=      179.5306   / Degree    3.133399 / rad

 *******************************************
 * Values of the constraints   / au or rad *
 *******************************************
   Label        C         C0
 Cns001      3.401507  3.401507
 Cns002      3.023562  3.023562
 Cns003      3.133399  3.141593

  15  -289.86959299  -289.86980882    -0.00021583  0.07123191  0.08790009  0.01164265  0.22843359  0.59216766  0.01038891     54.12

 Constraints section
ConstraintsConstraintsConstraintsConstraintsConstraintsConstraintsConstraintsConstraintsConstraintsConstraints
ConstraintsConstraintsConstraintsConstraintsConstraintsConstraintsConstraintsConstraintsConstraintsConstraints
Constraints                                                                                        Constraints
Constraints                                 C O N S T R A I N T S                                  Constraints
Constraints                                                                                        Constraints

************************************************************************************************************************
BO0001 = BOND       H7    C1
BO0002 = BOND       H7    C17
AN0001 = ANGLE      C1    H7    C17
VALUES
BO0001 =      1.80000000 ANGSTROM
BO0002 =      1.60000000 ANGSTROM
AN0001 =    180.00000000 DEGREE
************************************************************************************************************************


 *************************************************************
 * Values of the primitive constraints                       *
 *************************************************************
 BO0001   : Bond Length=  1.800000 / Angstrom  3.401507 / bohr
 BO0002   : Bond Length=  1.600000 / Angstrom  3.023562 / bohr
  Valence angle close to end in range of definition
 AN0001   : Angle=      179.2631   / Degree    3.128731 / rad

 *******************************************
 * Values of the constraints   / au or rad *
 *******************************************
   Label        C         C0
 Cns001      3.401507  3.401507
 Cns002      3.023562  3.023562
 Cns003      3.128731  3.141593

  16  -289.86980882  -289.86959342     0.00021540  0.06924504  0.08459403  0.01120475  0.30700572  0.73595247  0.01291145     57.88

 Constraints section
ConstraintsConstraintsConstraintsConstraintsConstraintsConstraintsConstraintsConstraintsConstraintsConstraints
ConstraintsConstraintsConstraintsConstraintsConstraintsConstraintsConstraintsConstraintsConstraintsConstraints
Constraints                                                                                        Constraints
Constraints                                 C O N S T R A I N T S                                  Constraints
Constraints                                                                                        Constraints

************************************************************************************************************************
BO0001 = BOND       H7    C1
BO0002 = BOND       H7    C17
AN0001 = ANGLE      C1    H7    C17
VALUES
BO0001 =      1.80000000 ANGSTROM
BO0002 =      1.60000000 ANGSTROM
AN0001 =    180.00000000 DEGREE
************************************************************************************************************************


 *************************************************************
 * Values of the primitive constraints                       *
 *************************************************************
 BO0001   : Bond Length=  1.800000 / Angstrom  3.401507 / bohr
 BO0002   : Bond Length=  1.600000 / Angstrom  3.023562 / bohr
  Valence angle close to end in range of definition
 AN0001   : Angle=      177.6037   / Degree    3.099770 / rad

 *******************************************
 * Values of the constraints   / au or rad *
 *******************************************
   Label        C         C0
 Cns001      3.401507  3.401507
 Cns002      3.023562  3.023562
 Cns003      3.099770  3.141593

  17  -289.86959342  -289.86968887    -0.00009545  0.05277504  0.07259647  0.00961564  0.21870791  0.45869151  0.00804722     61.72

 Constraints section
ConstraintsConstraintsConstraintsConstraintsConstraintsConstraintsConstraintsConstraintsConstraintsConstraints
ConstraintsConstraintsConstraintsConstraintsConstraintsConstraintsConstraintsConstraintsConstraintsConstraints
Constraints                                                                                        Constraints
Constraints                                 C O N S T R A I N T S                                  Constraints
Constraints                                                                                        Constraints

************************************************************************************************************************
BO0001 = BOND       H7    C1
BO0002 = BOND       H7    C17
AN0001 = ANGLE      C1    H7    C17
VALUES
BO0001 =      1.80000000 ANGSTROM
BO0002 =      1.60000000 ANGSTROM
AN0001 =    180.00000000 DEGREE
************************************************************************************************************************


 *************************************************************
 * Values of the primitive constraints                       *
 *************************************************************
 BO0001   : Bond Length=  1.800000 / Angstrom  3.401507 / bohr
 BO0002   : Bond Length=  1.600000 / Angstrom  3.023562 / bohr
  Valence angle close to end in range of definition
 AN0001   : Angle=      177.6757   / Degree    3.101025 / rad

 *******************************************
 * Values of the constraints   / au or rad *
 *******************************************
   Label        C         C0
 Cns001      3.401507  3.401507
 Cns002      3.023562  3.023562
 Cns003      3.101025  3.141593

  18  -289.86968887  -289.86927391     0.00041496  0.06834514  0.08390448  0.01111342  0.35294806  0.78886473  0.01383973     65.50

 Constraints section
ConstraintsConstraintsConstraintsConstraintsConstraintsConstraintsConstraintsConstraintsConstraintsConstraints
ConstraintsConstraintsConstraintsConstraintsConstraintsConstraintsConstraintsConstraintsConstraintsConstraints
Constraints                                                                                        Constraints
Constraints                                 C O N S T R A I N T S                                  Constraints
Constraints                                                                                        Constraints

************************************************************************************************************************
BO0001 = BOND       H7    C1
BO0002 = BOND       H7    C17
AN0001 = ANGLE      C1    H7    C17
VALUES
BO0001 =      1.80000000 ANGSTROM
BO0002 =      1.60000000 ANGSTROM
AN0001 =    180.00000000 DEGREE
************************************************************************************************************************


 *************************************************************
 * Values of the primitive constraints                       *
 *************************************************************
 BO0001   : Bond Length=  1.800000 / Angstrom  3.401507 / bohr
 BO0002   : Bond Length=  1.600000 / Angstrom  3.023562 / bohr
  Valence angle close to end in range of definition
 AN0001   : Angle=      179.2150   / Degree    3.127892 / rad

 *******************************************
 * Values of the constraints   / au or rad *
 *******************************************
   Label        C         C0
 Cns001      3.401507  3.401507
 Cns002      3.023562  3.023562
 Cns003      3.127892  3.141593

  19  -289.86927391  -289.86967977    -0.00040586  0.06133055  0.07886386  0.01044577  0.22769352  0.68291385  0.01198094     69.18

 Constraints section
ConstraintsConstraintsConstraintsConstraintsConstraintsConstraintsConstraintsConstraintsConstraintsConstraints
ConstraintsConstraintsConstraintsConstraintsConstraintsConstraintsConstraintsConstraintsConstraintsConstraints
Constraints                                                                                        Constraints
Constraints                                 C O N S T R A I N T S                                  Constraints
Constraints                                                                                        Constraints

************************************************************************************************************************
BO0001 = BOND       H7    C1
BO0002 = BOND       H7    C17
AN0001 = ANGLE      C1    H7    C17
VALUES
BO0001 =      1.80000000 ANGSTROM
BO0002 =      1.60000000 ANGSTROM
AN0001 =    180.00000000 DEGREE
************************************************************************************************************************


 *************************************************************
 * Values of the primitive constraints                       *
 *************************************************************
 BO0001   : Bond Length=  1.800000 / Angstrom  3.401507 / bohr
 BO0002   : Bond Length=  1.600000 / Angstrom  3.023562 / bohr
  Valence angle close to end in range of definition
 AN0001   : Angle=      178.7623   / Degree    3.119991 / rad

 *******************************************
 * Values of the constraints   / au or rad *
 *******************************************
   Label        C         C0
 Cns001      3.401507  3.401507
 Cns002      3.023562  3.023562
 Cns003      3.119991  3.141593

  20  -289.86967977  -289.86985590    -0.00017613  0.08103351  0.09591865  0.01270474  0.08005024  0.23947324  0.00420128     72.59

 Constraints section
ConstraintsConstraintsConstraintsConstraintsConstraintsConstraintsConstraintsConstraintsConstraintsConstraints
ConstraintsConstraintsConstraintsConstraintsConstraintsConstraintsConstraintsConstraintsConstraintsConstraints
Constraints                                                                                        Constraints
Constraints                                 C O N S T R A I N T S                                  Constraints
Constraints                                                                                        Constraints

************************************************************************************************************************
BO0001 = BOND       H7    C1
BO0002 = BOND       H7    C17
AN0001 = ANGLE      C1    H7    C17
VALUES
BO0001 =      1.80000000 ANGSTROM
BO0002 =      1.60000000 ANGSTROM
AN0001 =    180.00000000 DEGREE
************************************************************************************************************************


 *************************************************************
 * Values of the primitive constraints                       *
 *************************************************************
 BO0001   : Bond Length=  1.800000 / Angstrom  3.401507 / bohr
 BO0002   : Bond Length=  1.600000 / Angstrom  3.023562 / bohr
  Valence angle close to end in range of definition
 AN0001   : Angle=      179.1341   / Degree    3.126480 / rad

 *******************************************
 * Values of the constraints   / au or rad *
 *******************************************
   Label        C         C0
 Cns001      3.401507  3.401507
 Cns002      3.023562  3.023562
 Cns003      3.126480  3.141593

  21  -289.86985590  -289.86985131     0.00000458  0.05495010  0.07285141  0.00964941  0.03989452  0.08910523  0.00156325     75.95

 Constraints section
ConstraintsConstraintsConstraintsConstraintsConstraintsConstraintsConstraintsConstraintsConstraintsConstraints
ConstraintsConstraintsConstraintsConstraintsConstraintsConstraintsConstraintsConstraintsConstraintsConstraints
Constraints                                                                                        Constraints
Constraints                                 C O N S T R A I N T S                                  Constraints
Constraints                                                                                        Constraints

************************************************************************************************************************
BO0001 = BOND       H7    C1
BO0002 = BOND       H7    C17
AN0001 = ANGLE      C1    H7    C17
VALUES
BO0001 =      1.80000000 ANGSTROM
BO0002 =      1.60000000 ANGSTROM
AN0001 =    180.00000000 DEGREE
************************************************************************************************************************


 *************************************************************
 * Values of the primitive constraints                       *
 *************************************************************
 BO0001   : Bond Length=  1.800000 / Angstrom  3.401507 / bohr
 BO0002   : Bond Length=  1.600000 / Angstrom  3.023562 / bohr
  Valence angle close to end in range of definition
 AN0001   : Angle=      179.6196   / Degree    3.134954 / rad

 *******************************************
 * Values of the constraints   / au or rad *
 *******************************************
   Label        C         C0
 Cns001      3.401507  3.401507
 Cns002      3.023562  3.023562
 Cns003      3.134954  3.141593

  22  -289.86985131  -289.86991936    -0.00006805  0.06072509  0.07725203  0.01023228  0.03766643  0.08833727  0.00154978     79.15

 Constraints section
ConstraintsConstraintsConstraintsConstraintsConstraintsConstraintsConstraintsConstraintsConstraintsConstraints
ConstraintsConstraintsConstraintsConstraintsConstraintsConstraintsConstraintsConstraintsConstraintsConstraints
Constraints                                                                                        Constraints
Constraints                                 C O N S T R A I N T S                                  Constraints
Constraints                                                                                        Constraints

************************************************************************************************************************
BO0001 = BOND       H7    C1
BO0002 = BOND       H7    C17
AN0001 = ANGLE      C1    H7    C17
VALUES
BO0001 =      1.80000000 ANGSTROM
BO0002 =      1.60000000 ANGSTROM
AN0001 =    180.00000000 DEGREE
************************************************************************************************************************


 *************************************************************
 * Values of the primitive constraints                       *
 *************************************************************
 BO0001   : Bond Length=  1.800000 / Angstrom  3.401507 / bohr
 BO0002   : Bond Length=  1.600000 / Angstrom  3.023562 / bohr
  Valence angle close to end in range of definition
 AN0001   : Angle=      179.5953   / Degree    3.134530 / rad

 *******************************************
 * Values of the constraints   / au or rad *
 *******************************************
   Label        C         C0
 Cns001      3.401507  3.401507
 Cns002      3.023562  3.023562
 Cns003      3.134530  3.141593

  23  -289.86991936  -289.86990884     0.00001052  0.06186295  0.07813782  0.01034961  0.01029723  0.02786752  0.00048890     82.08

 Constraints section
ConstraintsConstraintsConstraintsConstraintsConstraintsConstraintsConstraintsConstraintsConstraintsConstraints
ConstraintsConstraintsConstraintsConstraintsConstraintsConstraintsConstraintsConstraintsConstraintsConstraints
Constraints                                                                                        Constraints
Constraints                                 C O N S T R A I N T S                                  Constraints
Constraints                                                                                        Constraints

************************************************************************************************************************
BO0001 = BOND       H7    C1
BO0002 = BOND       H7    C17
AN0001 = ANGLE      C1    H7    C17
VALUES
BO0001 =      1.80000000 ANGSTROM
BO0002 =      1.60000000 ANGSTROM
AN0001 =    180.00000000 DEGREE
************************************************************************************************************************


 *************************************************************
 * Values of the primitive constraints                       *
 *************************************************************
 BO0001   : Bond Length=  1.800000 / Angstrom  3.401507 / bohr
 BO0002   : Bond Length=  1.600000 / Angstrom  3.023562 / bohr
  Valence angle close to end in range of definition
 AN0001   : Angle=      179.9053   / Degree    3.139941 / rad

 *******************************************
 * Values of the constraints   / au or rad *
 *******************************************
   Label        C         C0
 Cns001      3.401507  3.401507
 Cns002      3.023562  3.023562
 Cns003      3.139941  3.141593

  24  -289.86990884  -289.86984378     0.00006506  0.06253358  0.07874616  0.01043018  0.03381090  0.08212710  0.00144083     85.40

 Constraints section
ConstraintsConstraintsConstraintsConstraintsConstraintsConstraintsConstraintsConstraintsConstraintsConstraints
ConstraintsConstraintsConstraintsConstraintsConstraintsConstraintsConstraintsConstraintsConstraintsConstraints
Constraints                                                                                        Constraints
Constraints                                 C O N S T R A I N T S                                  Constraints
Constraints                                                                                        Constraints

************************************************************************************************************************
BO0001 = BOND       H7    C1
BO0002 = BOND       H7    C17
AN0001 = ANGLE      C1    H7    C17
VALUES
BO0001 =      1.80000000 ANGSTROM
BO0002 =      1.60000000 ANGSTROM
AN0001 =    180.00000000 DEGREE
************************************************************************************************************************


 *************************************************************
 * Values of the primitive constraints                       *
 *************************************************************
 BO0001   : Bond Length=  1.800000 / Angstrom  3.401507 / bohr
 BO0002   : Bond Length=  1.600000 / Angstrom  3.023562 / bohr
  Valence angle close to end in range of definition
 AN0001   : Angle=      178.9591   / Degree    3.123425 / rad

 *******************************************
 * Values of the constraints   / au or rad *
 *******************************************
   Label        C         C0
 Cns001      3.401507  3.401507
 Cns002      3.023562  3.023562
 Cns003      3.123425  3.141593

  25  -289.86984378  -289.86994931    -0.00010553  0.06374189  0.07992860  0.01058680  0.05849825  0.16288053  0.00285755     88.61

 Constraints section
ConstraintsConstraintsConstraintsConstraintsConstraintsConstraintsConstraintsConstraintsConstraintsConstraints
ConstraintsConstraintsConstraintsConstraintsConstraintsConstraintsConstraintsConstraintsConstraintsConstraints
Constraints                                                                                        Constraints
Constraints                                 C O N S T R A I N T S                                  Constraints
Constraints                                                                                        Constraints

************************************************************************************************************************
BO0001 = BOND       H7    C1
BO0002 = BOND       H7    C17
AN0001 = ANGLE      C1    H7    C17
VALUES
BO0001 =      1.80000000 ANGSTROM
BO0002 =      1.60000000 ANGSTROM
AN0001 =    180.00000000 DEGREE
************************************************************************************************************************


 *************************************************************
 * Values of the primitive constraints                       *
 *************************************************************
 BO0001   : Bond Length=  1.800000 / Angstrom  3.401507 / bohr
 BO0002   : Bond Length=  1.600000 / Angstrom  3.023562 / bohr
  Valence angle close to end in range of definition
 AN0001   : Angle=      179.8538   / Degree    3.139041 / rad

 *******************************************
 * Values of the constraints   / au or rad *
 *******************************************
   Label        C         C0
 Cns001      3.401507  3.401507
 Cns002      3.023562  3.023562
 Cns003      3.139041  3.141593

  26  -289.86994931  -289.86989086     0.00005845  0.06147673  0.07783922  0.01031006  0.07342255  0.18984259  0.00333057     92.16

 Constraints section
ConstraintsConstraintsConstraintsConstraintsConstraintsConstraintsConstraintsConstraintsConstraintsConstraints
ConstraintsConstraintsConstraintsConstraintsConstraintsConstraintsConstraintsConstraintsConstraintsConstraints
Constraints                                                                                        Constraints
Constraints                                 C O N S T R A I N T S                                  Constraints
Constraints                                                                                        Constraints

************************************************************************************************************************
BO0001 = BOND       H7    C1
BO0002 = BOND       H7    C17
AN0001 = ANGLE      C1    H7    C17
VALUES
BO0001 =      1.80000000 ANGSTROM
BO0002 =      1.60000000 ANGSTROM
AN0001 =    180.00000000 DEGREE
************************************************************************************************************************


 *************************************************************
 * Values of the primitive constraints                       *
 *************************************************************
 BO0001   : Bond Length=  1.800000 / Angstrom  3.401507 / bohr
 BO0002   : Bond Length=  1.600000 / Angstrom  3.023562 / bohr
  Valence angle close to end in range of definition
 AN0001   : Angle=      179.1525   / Degree    3.126801 / rad

 *******************************************
 * Values of the constraints   / au or rad *
 *******************************************
   Label        C         C0
 Cns001      3.401507  3.401507
 Cns002      3.023562  3.023562
 Cns003      3.126801  3.141593

  27  -289.86989086  -289.86982328     0.00006757  0.06622697  0.08214897  0.01088090  0.13796592  0.34324554  0.00602185     95.73

 Constraints section
ConstraintsConstraintsConstraintsConstraintsConstraintsConstraintsConstraintsConstraintsConstraintsConstraints
ConstraintsConstraintsConstraintsConstraintsConstraintsConstraintsConstraintsConstraintsConstraintsConstraints
Constraints                                                                                        Constraints
Constraints                                 C O N S T R A I N T S                                  Constraints
Constraints                                                                                        Constraints

************************************************************************************************************************
BO0001 = BOND       H7    C1
BO0002 = BOND       H7    C17
AN0001 = ANGLE      C1    H7    C17
VALUES
BO0001 =      1.80000000 ANGSTROM
BO0002 =      1.60000000 ANGSTROM
AN0001 =    180.00000000 DEGREE
************************************************************************************************************************


 *************************************************************
 * Values of the primitive constraints                       *
 *************************************************************
 BO0001   : Bond Length=  1.800000 / Angstrom  3.401507 / bohr
 BO0002   : Bond Length=  1.600000 / Angstrom  3.023562 / bohr
  Valence angle close to end in range of definition
 AN0001   : Angle=      179.3040   / Degree    3.129445 / rad

 *******************************************
 * Values of the constraints   / au or rad *
 *******************************************
   Label        C         C0
 Cns001      3.401507  3.401507
 Cns002      3.023562  3.023562
 Cns003      3.129445  3.141593

  28  -289.86982328  -289.86985696    -0.00003368  0.06125622  0.07764807  0.01028474  0.13343021  0.34214815  0.00600260     99.14

 Constraints section
ConstraintsConstraintsConstraintsConstraintsConstraintsConstraintsConstraintsConstraintsConstraintsConstraints
ConstraintsConstraintsConstraintsConstraintsConstraintsConstraintsConstraintsConstraintsConstraintsConstraints
Constraints                                                                                        Constraints
Constraints                                 C O N S T R A I N T S                                  Constraints
Constraints                                                                                        Constraints

************************************************************************************************************************
BO0001 = BOND       H7    C1
BO0002 = BOND       H7    C17
AN0001 = ANGLE      C1    H7    C17
VALUES
BO0001 =      1.80000000 ANGSTROM
BO0002 =      1.60000000 ANGSTROM
AN0001 =    180.00000000 DEGREE
************************************************************************************************************************


 *************************************************************
 * Values of the primitive constraints                       *
 *************************************************************
 BO0001   : Bond Length=  1.800000 / Angstrom  3.401507 / bohr
 BO0002   : Bond Length=  1.600000 / Angstrom  3.023562 / bohr
  Valence angle close to end in range of definition
 AN0001   : Angle=      178.9836   / Degree    3.123852 / rad

 *******************************************
 * Values of the constraints   / au or rad *
 *******************************************
   Label        C         C0
 Cns001      3.401507  3.401507
 Cns002      3.023562  3.023562
 Cns003      3.123852  3.141593

  29  -289.86985696  -289.86990563    -0.00004867  0.06750234  0.08341937  0.01104916  0.09109065  0.24266645  0.00425731    102.50

 Constraints section
ConstraintsConstraintsConstraintsConstraintsConstraintsConstraintsConstraintsConstraintsConstraintsConstraints
ConstraintsConstraintsConstraintsConstraintsConstraintsConstraintsConstraintsConstraintsConstraintsConstraints
Constraints                                                                                        Constraints
Constraints                                 C O N S T R A I N T S                                  Constraints
Constraints                                                                                        Constraints

************************************************************************************************************************
BO0001 = BOND       H7    C1
BO0002 = BOND       H7    C17
AN0001 = ANGLE      C1    H7    C17
VALUES
BO0001 =      1.80000000 ANGSTROM
BO0002 =      1.60000000 ANGSTROM
AN0001 =    180.00000000 DEGREE
************************************************************************************************************************


 *************************************************************
 * Values of the primitive constraints                       *
 *************************************************************
 BO0001   : Bond Length=  1.800000 / Angstrom  3.401507 / bohr
 BO0002   : Bond Length=  1.600000 / Angstrom  3.023562 / bohr
  Valence angle close to end in range of definition
 AN0001   : Angle=      179.2856   / Degree    3.129124 / rad

 *******************************************
 * Values of the constraints   / au or rad *
 *******************************************
   Label        C         C0
 Cns001      3.401507  3.401507
 Cns002      3.023562  3.023562
 Cns003      3.129124  3.141593

  30  -289.86990563  -289.86953352     0.00037211  0.06183044  0.07828517  0.01036912  0.23872870  0.61866746  0.01085382    106.06

 Constraints section
ConstraintsConstraintsConstraintsConstraintsConstraintsConstraintsConstraintsConstraintsConstraintsConstraints
ConstraintsConstraintsConstraintsConstraintsConstraintsConstraintsConstraintsConstraintsConstraintsConstraints
Constraints                                                                                        Constraints
Constraints                                 C O N S T R A I N T S                                  Constraints
Constraints                                                                                        Constraints

************************************************************************************************************************
BO0001 = BOND       H7    C1
BO0002 = BOND       H7    C17
AN0001 = ANGLE      C1    H7    C17
VALUES
BO0001 =      1.80000000 ANGSTROM
BO0002 =      1.60000000 ANGSTROM
AN0001 =    180.00000000 DEGREE
************************************************************************************************************************


 *************************************************************
 * Values of the primitive constraints                       *
 *************************************************************
 BO0001   : Bond Length=  1.800000 / Angstrom  3.401507 / bohr
 BO0002   : Bond Length=  1.600000 / Angstrom  3.023562 / bohr
  Valence angle close to end in range of definition
 AN0001   : Angle=      178.6086   / Degree    3.117307 / rad

 *******************************************
 * Values of the constraints   / au or rad *
 *******************************************
   Label        C         C0
 Cns001      3.401507  3.401507
 Cns002      3.023562  3.023562
 Cns003      3.117307  3.141593

  31  -289.86953352  -289.86987588    -0.00034236  0.07420295  0.09029935  0.01196044  0.17121657  0.35425524  0.00621500    109.50

 Constraints section
ConstraintsConstraintsConstraintsConstraintsConstraintsConstraintsConstraintsConstraintsConstraintsConstraints
ConstraintsConstraintsConstraintsConstraintsConstraintsConstraintsConstraintsConstraintsConstraintsConstraints
Constraints                                                                                        Constraints
Constraints                                 C O N S T R A I N T S                                  Constraints
Constraints                                                                                        Constraints

[...]
   10      0.159D-05      0.746D-06      -290.21951597    807.503190   -0.18381   -0.07554    2.78593    8      7.5     83.5
   11      0.718D-06      0.434D-06      -290.21951603    807.503180   -0.18384   -0.07554    2.78582    9      7.2     90.7
   12      0.682D-06      0.214D-06      -290.21951605    807.503301   -0.18383   -0.07556    2.78591    9      7.2     97.9

 Final alpha occupancy:  28
 Final beta  occupancy:  27

 !UKS STATE  1.1 Energy              -290.219516045765
 Nuclear energy                       276.86637114
 One-electron energy                 -937.90876648
 Two-electron energy                  403.75165039
 Density functional                   -32.92877110     PBEX=-41.56526176 PBEC= -1.75482478
 Virial quotient                       -1.00670168
 !UKS STATE  1.1 Dipole moment         -0.18383316    -0.07555809     2.78590835
 Dipole moment /Debye                  -0.46722669    -0.19203692     7.08060893

 Orbital energies for positive spin:

         1.1          2.1          3.1          4.1          5.1          6.1          7.1          8.1          9.1         10.1
    -14.358233   -10.298864   -10.254196   -10.246976   -10.246941   -10.245433   -10.232384    -0.901376    -0.880309    -0.789797

        11.1         12.1         13.1         14.1         15.1         16.1         17.1         18.1         19.1         20.1
     -0.746569    -0.678542    -0.585509    -0.523627    -0.501381    -0.480151    -0.462204    -0.455524    -0.431928    -0.423605

        21.1         22.1         23.1         24.1         25.1         26.1         27.1         28.1         29.1         30.1
     -0.407494    -0.390441    -0.376228    -0.374012    -0.356929    -0.331611    -0.331564    -0.251679     0.009572     0.030582

 Orbital energies for negative spin:

         1.1          2.1          3.1          4.1          5.1          6.1          7.1          8.1          9.1         10.1
    -14.358234   -10.288475   -10.254545   -10.247415   -10.247339   -10.239659   -10.232256    -0.897375    -0.866336    -0.787101

        11.1         12.1         13.1         14.1         15.1         16.1         17.1         18.1         19.1         20.1
     -0.744333    -0.675093    -0.568692    -0.505319    -0.498225    -0.474157    -0.453457    -0.441905    -0.425690    -0.422205

        21.1         22.1         23.1         24.1         25.1         26.1         27.1         28.1         29.1         30.1
     -0.406177    -0.386731    -0.372318    -0.371315    -0.347525    -0.329152    -0.329102    -0.128436     0.021502     0.036542


 HOMO     28.1    -0.251679 =      -6.8485eV
 LUMO    -28.1    -0.128436 =      -3.4949eV
 LUMO-HOMO         0.123243 =       3.3536eV

 EXPECTATION VALUE OF S**2:             0.75810453

 Occupation number threshold for pseudo-canonical orbitals: 1.9990 (occupied), 0.0010 (virtual)

 Number of pseudo-canonical occupied orbitals per symmetry:   26
 Number of active natural orbitals per symmetry:               3

 Natural orbitals saved to record    2204.2 (Orbital set 3)

 Orbital spaces for UNO-CAS (Min. occupation: 0.020  Max. occupation: 1.980):

 Closed:       27
 Active:        1


 **********************************************************************************************************************************
 DATASETS  * FILE   NREC   LENGTH (MB)   RECORD NAMES
              1      19       33.38       500      610      700      900      950      970     1001      129      960     1100   
                                          VAR    BASINP    GEOM    SYMINP    ZMAT    AOBASIS   BASIS     P2S    ABASIS      S 
                                         1400     1410     1200     1210     1080     1600     1650     1700     1800   
                                           T        V       H0       H01     AOSYM     SMH    MOLCAS    OPER     GRID   

              2      13       27.69       700     1000      520     2100     1800     2200      520(1)  2201      520(2)  2202   
                                         GEOM     BASIS   MCVARS     RHF     GRID      UKS    MCVARS     UKS    MCVARS     UKS  
                                         1001     2203     2204   
                                         BASIS     UKS      UKS  

 PROGRAMS   *        TOTAL    DF-UKS    DF-UKS       INT    DF-UKS      OPTG    DF-UKS      OPTG    DF-UKS     DF-HF       INT
 CPU TIMES  *       830.35     97.95      3.98      0.20      2.16    518.98     26.10    175.00      2.73      2.79      0.31
 REAL TIME  *       844.55 SEC
 DISK USED  *        61.16 MB (local),      244.63 MB (total)
 SF USED    *        33.08 MB
 GA USED    *         3.27 MB       (max)       2.13 MB       (current)
 **********************************************************************************************************************************

 Density functional group PBE0=PBEX+PBEC
 Functional: PBEX(Automatically generated (new) PBEX)                          Gradient terms: 1
 Functional: PBEC(Automatically generated (new) PBEC)                          Gradient terms: 1
 Use libxcgrid:  F
 Use grid at  1800.2


 Exact exchange will be calculated, factor:  0.2500

 Functional: PBEX                      Factor:  0.7500
 Functional: PBEC                      Factor:  1.0000

  234265 words reserved for DFT integration

 PROGRAM * UKS-SCF (Unrestricted Kohn-Sham)     Authors: W. Meyer, H.-J. Werner, P.J. Knowles, 1993

 NUMBER OF ELECTRONS:      28+   27-    SPACE SYMMETRY=1    SPIN SYMMETRY: Doublet 
 CONVERGENCE THRESHOLDS:    1.00E-06 (Density)    1.00E-06 (Energy)
 INTEGRAL THRESHOLDS:       1.00E-11 (Initial)    1.00E-11 (Final)
 MAX. NUMBER OF ITERATIONS:       60
 INTERPOLATION TYPE:            DIIS
 INTERPOLATION STEPS:              2 (START)      1 (STEP)
 LEVEL SHIFTS:                 -0.20 (ALPHA)  -0.20 (BETA) 



 Use fine grid record 1800.2 for energy threshold  1.0D-06
 Molecular orbitals read from record     2204.2  Type=UKS/ALPHA (state 1.1)
 Molecular orbitals read from record     2204.2  Type=UKS/BETA (state 1.1)

 Molecular orbital dump at record        2205.2

 Initial alpha occupation  28
 Initial beta  occupation  27

 Direct Fock-matrix evaluation.        Author: H.-J. Werner (1996)

 Integral Threshold:                  0.1D-10

 ITERATION   DDIFF            GRAD            ENERGY        2-EL.EN.            DIPOLE MOMENTS         DIIS   CPU(IT)  CPU(TOT)
    1      0.000D+00      0.000D+00      -290.21924005    807.503853   -0.18383   -0.07556    2.78591    0     10.0     10.0
    2      0.387D-04      0.846D-05      -290.21924171    807.500297   -0.18388   -0.07553    2.78588    1      9.0     18.9
    3      0.122D-04      0.147D-05      -290.21924180    807.501134   -0.18392   -0.07554    2.78580    2      8.7     27.7
    4      0.422D-05      0.282D-06      -290.21924181    807.500978   -0.18396   -0.07554    2.78581    3      8.4     36.1
    5      0.909D-06      0.126D-06      -290.21924181    807.501189   -0.18396   -0.07555    2.78576    4      8.1     44.1
    6      0.356D-06      0.818D-07      -290.21924181    807.501247   -0.18397   -0.07555    2.78580    5      7.8     51.9

 Final alpha occupancy:  28
 Final beta  occupancy:  27

 !UKS STATE  1.1 Energy              -290.219241806925
 Nuclear energy                       276.86637114
 One-electron energy                 -937.90776173
 Two-electron energy                  403.75062340
 Density functional                   -32.92847463     PBEX=-41.56480740 PBEC= -1.75486908
 Virial quotient                       -1.00671435
 !UKS STATE  1.1 Dipole moment         -0.18396989    -0.07554987     2.78579935
 Dipole moment /Debye                  -0.46757420    -0.19201603     7.08033190

 Orbital energies for positive spin:

         1.1          2.1          3.1          4.1          5.1          6.1          7.1          8.1          9.1         10.1
    -14.358269   -10.298892   -10.254225   -10.247021   -10.246994   -10.245493   -10.232443    -0.901373    -0.880312    -0.789805

        11.1         12.1         13.1         14.1         15.1         16.1         17.1         18.1         19.1         20.1
     -0.746578    -0.678546    -0.585510    -0.523631    -0.501387    -0.480161    -0.462210    -0.455531    -0.431923    -0.423619

        21.1         22.1         23.1         24.1         25.1         26.1         27.1         28.1         29.1         30.1
     -0.407498    -0.390449    -0.376227    -0.374015    -0.356903    -0.331627    -0.331580    -0.251657     0.009547     0.030536

 Orbital energies for negative spin:

         1.1          2.1          3.1          4.1          5.1          6.1          7.1          8.1          9.1         10.1
    -14.358273   -10.288502   -10.254574   -10.247460   -10.247392   -10.239713   -10.232315    -0.897372    -0.866340    -0.787110

        11.1         12.1         13.1         14.1         15.1         16.1         17.1         18.1         19.1         20.1
     -0.744341    -0.675097    -0.568695    -0.505325    -0.498231    -0.474169    -0.453457    -0.441909    -0.425687    -0.422219

        21.1         22.1         23.1         24.1         25.1         26.1         27.1         28.1         29.1         30.1
     -0.406180    -0.386741    -0.372321    -0.371313    -0.347498    -0.329170    -0.329120    -0.128410     0.021470     0.036514


 HOMO     28.1    -0.251657 =      -6.8479eV
 LUMO    -28.1    -0.128410 =      -3.4942eV
 LUMO-HOMO         0.123247 =       3.3537eV

 EXPECTATION VALUE OF S**2:             0.75811649

 Occupation number threshold for pseudo-canonical orbitals: 1.9990 (occupied), 0.0010 (virtual)

 Number of pseudo-canonical occupied orbitals per symmetry:   26
 Number of active natural orbitals per symmetry:               3

 Natural orbitals saved to record    2205.2 (Orbital set 3)

 Orbital spaces for UNO-CAS (Min. occupation: 0.020  Max. occupation: 1.980):

 Closed:       27
 Active:        1


 **********************************************************************************************************************************
 DATASETS  * FILE   NREC   LENGTH (MB)   RECORD NAMES
              1      19       33.38       500      610      700      900      950      970     1001      129      960     1100   
                                          VAR    BASINP    GEOM    SYMINP    ZMAT    AOBASIS   BASIS     P2S    ABASIS      S 
                                         1400     1410     1200     1210     1080     1600     1650     1700     1800   
                                           T        V       H0       H01     AOSYM     SMH    MOLCAS    OPER     GRID   

              2      14       33.54       700     1000      520     2100     1800     2200      520(1)  2201      520(2)  2202   
                                         GEOM     BASIS   MCVARS     RHF     GRID      UKS    MCVARS     UKS    MCVARS     UKS  
                                         1001     2203     2204     2205   
                                         BASIS     UKS      UKS      UKS  

 PROGRAMS   *        TOTAL   UKS-SCF    DF-UKS    DF-UKS       INT    DF-UKS      OPTG    DF-UKS      OPTG    DF-UKS     DF-HF
 CPU TIMES  *       882.36     52.01     97.95      3.98      0.20      2.16    518.98     26.10    175.00      2.73      2.79
 REAL TIME  *       896.59 SEC
 DISK USED  *        67.01 MB (local),      268.05 MB (total)
 SF USED    *        33.08 MB
 GA USED    *         3.27 MB       (max)       2.13 MB       (current)
 **********************************************************************************************************************************

 Density functional group B3LYP=B88+DIRAC+LYP+VWN5
 Functional: B88(Automatically generated (new) B88)                            Gradient terms: 1
 Functional: DIRAC(Automatically generated (new) DIRAC)                        Gradient terms: 0
 Functional: LYP(Automatically generated (new) LYP)                            Gradient terms: 1
 Functional: VWN5(Automatically generated (new) VWN5)                          Gradient terms: 0
 Use libxcgrid:  F
 Use grid at  1800.2


 Exact exchange will be calculated, factor:  0.2000

 Functional: B88                       Factor:  0.7200
 Functional: DIRAC                     Factor:  0.0800
 Functional: LYP                       Factor:  0.8100
 Functional: VWN5                      Factor:  0.1900

  234265 words reserved for DFT integration

 PROGRAM * UKS-SCF (Unrestricted Kohn-Sham)     Authors: W. Meyer, H.-J. Werner, P.J. Knowles, 1993

 NUMBER OF ELECTRONS:      28+   27-    SPACE SYMMETRY=1    SPIN SYMMETRY: Doublet 
 CONVERGENCE THRESHOLDS:    1.00E-06 (Density)    1.00E-06 (Energy)
 INTEGRAL THRESHOLDS:       1.00E-11 (Initial)    1.00E-11 (Final)
 MAX. NUMBER OF ITERATIONS:       60
 INTERPOLATION TYPE:            DIIS
 INTERPOLATION STEPS:              2 (START)      1 (STEP)
 LEVEL SHIFTS:                 -0.20 (ALPHA)  -0.20 (BETA) 



 Use fine grid record 1800.2 for energy threshold  1.0D-06
 Molecular orbitals read from record     2205.2  Type=UKS/ALPHA (state 1.1)
 Molecular orbitals read from record     2205.2  Type=UKS/BETA (state 1.1)

 Molecular orbital dump at record        2206.2

 Initial alpha occupation  28
 Initial beta  occupation  27

 Direct Fock-matrix evaluation.        Author: H.-J. Werner (1996)

 Integral Threshold:                  0.1D-10

 ITERATION   DDIFF            GRAD            ENERGY        2-EL.EN.            DIPOLE MOMENTS         DIIS   CPU(IT)  CPU(TOT)
    1      0.000D+00      0.000D+00      -290.39134694    811.671855   -0.18397   -0.07555    2.78580    0      9.9      9.9
    2      0.103D-02      0.393D-03      -290.39548405    812.052043   -0.18448   -0.07531    2.79610    1      9.3     19.2
    3      0.181D-03      0.638D-04      -290.39569577    811.714599   -0.18268   -0.07527    2.77653    2      9.1     28.2
    4      0.101D-03      0.281D-04      -290.39572592    811.742447   -0.18399   -0.07500    2.78862    3      9.0     37.2
    5      0.329D-04      0.160D-04      -290.39573550    811.761224   -0.18279   -0.07475    2.78042    4      8.8     46.1
    6      0.282D-04      0.744D-05      -290.39573898    811.737542   -0.18308   -0.07459    2.78443    5      8.8     54.9
    7      0.885D-05      0.208D-05      -290.39573961    811.743681   -0.18310   -0.07466    2.78421    6      8.7     63.5
    8      0.535D-05      0.134D-05      -290.39573986    811.741203   -0.18316   -0.07461    2.78536    7      8.5     72.1
    9      0.264D-05      0.564D-06      -290.39573992    811.741198   -0.18314   -0.07462    2.78572    8      8.4     80.4
   10      0.903D-06      0.210D-06      -290.39573993    811.741443   -0.18318   -0.07463    2.78581    8      8.1     88.6
   11      0.366D-06      0.103D-06      -290.39573993    811.741439   -0.18317   -0.07463    2.78585    9      7.9     96.5

 Final alpha occupancy:  28
 Final beta  occupancy:  27

 !UKS STATE  1.1 Energy              -290.395739929862
 Nuclear energy                       276.86637114
 One-electron energy                 -937.92135425
 Two-electron energy                  405.87071941
 Density functional                   -35.21147624     B88=-41.83529661 DIRAC=-37.60362732 LYP= -1.76351223 VWN5= -3.43856626
 Virial quotient                       -1.00623614
 !UKS STATE  1.1 Dipole moment         -0.18317155    -0.07463428     2.78584793
 Dipole moment /Debye                  -0.46554514    -0.18968900     7.08045539

 Orbital energies for positive spin:

         1.1          2.1          3.1          4.1          5.1          6.1          7.1          8.1          9.1         10.1
    -14.290330   -10.241932   -10.201034   -10.195181   -10.195105   -10.191460   -10.180253    -0.875372    -0.853960    -0.766448

        11.1         12.1         13.1         14.1         15.1         16.1         17.1         18.1         19.1         20.1
     -0.724937    -0.658440    -0.567592    -0.507261    -0.486488    -0.465668    -0.447623    -0.441829    -0.420033    -0.411651

        21.1         22.1         23.1         24.1         25.1         26.1         27.1         28.1         29.1         30.1
     -0.396201    -0.379195    -0.365476    -0.363702    -0.343532    -0.318214    -0.318169    -0.240251     0.001708     0.021502

 Orbital energies for negative spin:

         1.1          2.1          3.1          4.1          5.1          6.1          7.1          8.1          9.1         10.1
    -14.290204   -10.232410   -10.201292   -10.195489   -10.195449   -10.185976   -10.180134    -0.871385    -0.841660    -0.763955

        11.1         12.1         13.1         14.1         15.1         16.1         17.1         18.1         19.1         20.1
     -0.722676    -0.655232    -0.552786    -0.491462    -0.483600    -0.460212    -0.440418    -0.427851    -0.414239    -0.410313

        21.1         22.1         23.1         24.1         25.1         26.1         27.1         28.1         29.1         30.1
     -0.394862    -0.375681    -0.362008    -0.360970    -0.334972    -0.315656    -0.315611    -0.137174     0.011672     0.028088


 HOMO     28.1    -0.240251 =      -6.5376eV
 LUMO    -28.1    -0.137174 =      -3.7327eV
 LUMO-HOMO         0.103078 =       2.8049eV

 EXPECTATION VALUE OF S**2:             0.75643111

 Occupation number threshold for pseudo-canonical orbitals: 1.9990 (occupied), 0.0010 (virtual)

 Number of pseudo-canonical occupied orbitals per symmetry:   26
 Number of active natural orbitals per symmetry:               3

 Natural orbitals saved to record    2206.2 (Orbital set 3)

 Orbital spaces for UNO-CAS (Min. occupation: 0.020  Max. occupation: 1.980):

 Closed:       27
 Active:        1


 **********************************************************************************************************************************
 DATASETS  * FILE   NREC   LENGTH (MB)   RECORD NAMES
              1      19       33.38       500      610      700      900      950      970     1001      129      960     1100   
                                          VAR    BASINP    GEOM    SYMINP    ZMAT    AOBASIS   BASIS     P2S    ABASIS      S 
                                         1400     1410     1200     1210     1080     1600     1650     1700     1800   
                                           T        V       H0       H01     AOSYM     SMH    MOLCAS    OPER     GRID   

              2      15       39.40       700     1000      520     2100     1800     2200      520(1)  2201      520(2)  2202   
                                         GEOM     BASIS   MCVARS     RHF     GRID      UKS    MCVARS     UKS    MCVARS     UKS  
                                         1001     2203     2204     2205     2206   
                                         BASIS     UKS      UKS      UKS      UKS  

 PROGRAMS   *        TOTAL   UKS-SCF   UKS-SCF    DF-UKS    DF-UKS       INT    DF-UKS      OPTG    DF-UKS      OPTG    DF-UKS
 CPU TIMES  *       978.92     96.56     52.01     97.95      3.98      0.20      2.16    518.98     26.10    175.00      2.73
 REAL TIME  *       993.21 SEC
 DISK USED  *        72.87 MB (local),      291.47 MB (total)
 SF USED    *        33.08 MB
 GA USED    *         3.27 MB       (max)       2.13 MB       (current)
 **********************************************************************************************************************************

 UB3LYP/TZVP//CF-UKS/SVP energy=   -290.395739929862

         UKS-SCF         UKS-SCF          DF-UKS          DF-UKS          DF-UKS    OPTG(DF-UKS)          DF-UKS    OPTG(DF-UKS)
   -290.39573993   -290.21924181   -290.21951605   -290.18991157   -289.86867635   -289.90553662   -289.90409986   -289.86921842
 **********************************************************************************************************************************
 Molpro calculation terminated with 2 warning(s)
