
 Primary working directories    : /mnt/storage/home/lb17101/scratch/1379415/molpro.fCalURxPYI
 Secondary working directories  : /mnt/storage/home/lb17101/scratch/1379415/molpro.fCalURxPYI
 Wavefunction directory         : /mnt/storage/home/lb17101/optimizations/7/
 Main file repository           : /mnt/storage/home/lb17101/optimizations/7/

 id        : simonbennie

 Nodes                   nprocs
 compute073.bc4.acrc.priv    4

 Using customized tuning parameters: mindgm=1; mindgv=20; mindgc=4; mindgr=1; noblas=0; minvec=7
 default implementation of scratch files=sf  


 Variables initialized (924), CPU time= 0.00 sec
 memory,536,m
 
 geomtyp=xyz
 
 nosym
 noorient
 gdirect
 angstrom
 
 geometry=input.xyz
 Including file /mnt/storage/home/lb17101/optimizations/7/input.xyz
 
 set,charge=0
 
 basis=svp
 df-hf
 {cf-uks,pbe;}
 {optg,method=slrf,maxiter=50;
 constraint,1.200,angstrom,bond,atoms=[H7,C1]
 constraint,2.400,angstrom,bond,atoms=[H7,C17]
 constraint,180,deg,angle,atoms=[C1,H7,C17]
 {slopt;}}
 {cf-uks,pbe0;}
 {optg,method=slrf,maxiter=20;
 constraint,1.200,angstrom,bond,atoms=[H7,C1]
 constraint,2.400,angstrom,bond,atoms=[H7,C17]
 constraint,180,deg,angle,atoms=[C1,H7,C17]
 {slopt;}}
 {cf-uks,pbe;}
 basis=tzvp
 {cf-uks,pbe;}
 {cf-uks,pbe0;}
 {uks,pbe0;}
 {uks,b3lyp;}
 Commands  initialized (760), CPU time= 0.01 sec, 616 directives.
 Default parameters read. Elapsed time= 0.05 sec

 Checking input...
 Passed
1


                                         ***  PROGRAM SYSTEM MOLPRO  ***
                                       Copyright, TTI GmbH Stuttgart, 2015
                                    Version 2018.1 linked Oct 16 2018 14:32:03


 **********************************************************************************************************************************
 LABEL *                                                                                 
  64 bit mpp version                                                                     DATE: 10-Nov-18          TIME: 01:01:28  
 **********************************************************************************************************************************

 SHA1:             d673ad554fd0a1ae99daa449513f8b88cca0f763
 **********************************************************************************************************************************
 SETTING GEOMTYP        =    XYZ

 Variable memory set to  536000000 words,  buffer space 

 ZSYMEL=NOSYM
 ZUNIT=ANG

 SETTING CHARGE         =     0.00000000D+00                                  
 SETTING BASIS          =    SVP


 Recomputing integrals since basis changed


 Using spherical harmonics

 Library entry C      S def2-SVP             selected for orbital group  1
 Library entry C      P def2-SVP             selected for orbital group  1
 Library entry C      D def2-SVP             selected for orbital group  1
 Library entry H      S def2-SVP             selected for orbital group  2
 Library entry H      P def2-SVP             selected for orbital group  2
 Library entry N      S def2-SVP             selected for orbital group  8
 Library entry N      P def2-SVP             selected for orbital group  8
 Library entry N      D def2-SVP             selected for orbital group  8


 PROGRAM * SEWARD (Integral evaluation for generally contracted gaussian basis sets)     Author: Roland Lindh, 1990

 Geometry written to block  1 of record 700


 Point group  C1  



 ATOMIC COORDINATES

 NR  ATOM    CHARGE       X              Y              Z

   1  C0      6.00  -15.316925113    4.888078256   -0.767052243
   2  C1      6.00  -12.509659000    4.644678157   -1.070390898
   3  H2      1.00  -16.346413757    3.266393148   -1.611352563
   4  H3      1.00  -16.060070410    6.659028964   -1.611398073
   5  H4      1.00  -15.867278179    4.939078915    1.276322047
   6  C5      6.00  -10.928940534    6.951542313   -0.623723353
   7  C6      6.00  -11.391119286    2.048705088   -0.721610816
   8  H7      1.00  -12.064532823    4.811752729   -5.409853371
   9  H8      1.00  -11.858594393    8.684827474   -1.350707090
  10  H9      1.00   -9.024283094    6.819447243   -1.489688335
  11  H10     1.00  -10.607924720    7.281743571    1.443810111
  12  H11     1.00  -12.564834386    0.660594741   -1.783784990
  13  H12     1.00  -11.651586181    1.480313562    1.306983776
  14  C13     6.00   -8.601100060    1.708416740   -1.418172702
  15  H14     1.00   -8.227734962    2.222762924   -3.417429662
  16  H15     1.00   -8.014177585   -0.286184374   -1.167620133
  17  H16     1.00   -7.341877758    2.878713852   -0.220497868
  18  C17     6.00  -11.862435348    4.823883071   -7.478668950
  19  N18     7.00  -11.637187328    4.827537747   -9.674272220

 Bond lengths in Bohr (Angstrom)

 1-2  2.834078506  1-3  2.098226034  1-4  2.097963589  1-5  2.116806098  2-6  2.831926023
     ( 1.499729759)     ( 1.110333401)     ( 1.110194521)     ( 1.120165547)     ( 1.498590715)

  2- 7  2.848131811   6- 9  2.096911801   6-10  2.096440894   6-11  2.118201749   7-12  2.105391044
       ( 1.507166448)       ( 1.109637938)       ( 1.109388745)       ( 1.120904093)       ( 1.114124961)

  7-13  2.122759513   7-14  2.895721310   8-18  2.078698735  14-15  2.097851731  14-16  2.094203473
       ( 1.123315958)       ( 1.532349726)       ( 1.099999999)       ( 1.110135328)       ( 1.108204753)

 14-17  2.095151819  18-19  2.207130206
       ( 1.108706596)       ( 1.167963007)

 Bond angles

  1-2-6  117.77855146   1-2-7  117.01248036   2-1-3  112.12069309   2-1-4  112.35172672

  2- 1- 5  111.27971143   2- 6- 9  111.78876771   2- 6-10  112.99419310   2- 6-11  111.44020680

  2- 7-12  108.67630802   2- 7-13  108.23366762   2- 7-14  117.13216098   3- 1- 4  108.46167851

  3- 1- 5  106.22951316   4- 1- 5  106.02553003   6- 2- 7  120.26137390   7-14-15  111.83345378

  7-14-16  110.68168460   7-14-17  112.08183597   8-18-19  179.63297686   9- 6-10  108.15949919

  9- 6-11  106.06536737  10- 6-11  105.98101855  12- 7-13  103.72019587  12- 7-14  109.77304899

 13- 7-14  108.45956817  15-14-16  107.31683745  15-14-17  107.50922167  16-14-17  107.16800153

 NUCLEAR CHARGE:                   55
 NUMBER OF PRIMITIVE AOS:         259
 NUMBER OF SYMMETRY AOS:          252
 NUMBER OF CONTRACTIONS:          158   (  158A   )
 NUMBER OF CORE ORBITALS:           7   (    7A   )
 NUMBER OF VALENCE ORBITALS:       40   (   40A   )


 NUCLEAR REPULSION ENERGY  275.70817015


 Eigenvalues of metric

         1 0.193E-02 0.310E-02 0.390E-02 0.405E-02 0.652E-02 0.110E-01 0.215E-01 0.232E-01


 OPERATOR DM      FOR CENTER  0  COORDINATES:    0.000000    0.000000    0.000000


 **********************************************************************************************************************************
 DATASETS  * FILE   NREC   LENGTH (MB)   RECORD NAMES
              1      18       31.21       500      610      700      900      950      970     1000      129      960     1100   
                                          VAR    BASINP    GEOM    SYMINP    ZMAT    AOBASIS   BASIS     P2S    ABASIS      S 
                                         1400     1410     1200     1210     1080     1600     1650     1700   
                                           T        V       H0       H01     AOSYM     SMH    MOLCAS    OPER   

 PROGRAMS   *        TOTAL       INT
 CPU TIMES  *         0.46      0.32
 REAL TIME  *         0.76 SEC
 DISK USED  *        31.83 MB (local),      127.32 MB (total)
 GA USED    *         0.00 MB       (max)       0.00 MB       (current)
 **********************************************************************************************************************************


 PROGRAM * RHF-SCF (OPEN SHELL)       Authors: W. Meyer, H.-J. Werner


 NUMBER OF ELECTRONS:      28+   27-    SPACE SYMMETRY=1    SPIN SYMMETRY: Doublet 
 CONVERGENCE THRESHOLDS:    1.00E-06 (Density)    1.00E-07 (Energy)
 INTEGRAL THRESHOLDS:       1.00E-11 (Initial)    1.00E-11 (Final)
 MAX. NUMBER OF ITERATIONS:       60
 INTERPOLATION TYPE:            DIIS
 INTERPOLATION STEPS:              2 (START)      1 (STEP)
 LEVEL SHIFTS:                 -0.60 (CLOSED) -0.30 (OPEN) 




 Basis set DEF2-SVP/JKFIT generated.     Number of basis functions:   560 

 Orbital guess generated from atomic densities. Full valence occupancy:   28
 Using density fitting in orbital guess

 Coulomb and exchange fitting
 Thresholds for fitting:       THRAO_COUL= 1.0D-14    THRAO_EXCH= 1.0D-12    THRMO= 1.0D-11    THRPROD= 1.0D-11    THRASM= 1.0D-11
                               THR2HLF=    1.0D-11

 Molecular orbital dump at record        2100.2

 Initial alpha occupancy:  28
 Initial beta  occupancy:  27
 Wave function symmetry:    1

 ITERATION   DDIFF            GRAD            ENERGY        2-EL.EN.            DIPOLE MOMENTS         DIIS   CPU(IT)  CPU(TOT)  ORB.
    1      0.000D+00      0.000D+00      -288.25653108    743.427118   -0.20611   -0.03282    2.24955    0      0.2      0.5     start
    2      0.000D+00      0.404D-02      -288.33743391    740.463678   -0.12968   -0.03912    1.76432    1      0.2      0.7     diag,B
    3      0.326D-02      0.159D-02      -288.35408585    740.537927   -0.13062   -0.04387    1.76760    2      0.2      0.9     diag,B
    4      0.172D-02      0.766D-03      -288.36085477    740.506910   -0.11869   -0.04677    1.67918    3      0.2      1.1     diag,B
    5      0.163D-02      0.217D-03      -288.36155294    740.466718   -0.11622   -0.04505    1.65893    4      0.2      1.3     diag,B
    6      0.673D-03      0.760D-04      -288.36165427    740.440907   -0.11505   -0.04372    1.64661    5      0.2      1.5     diag,B
    7      0.303D-03      0.227D-04      -288.36166362    740.433141   -0.11464   -0.04323    1.64196    6      0.2      1.7     fixocc
    8      0.786D-04      0.773D-05      -288.36166489    740.432495   -0.11448   -0.04309    1.64001    7      0.2      1.9     diag,B
    9      0.316D-04      0.272D-05      -288.36166507    740.432757   -0.11445   -0.04307    1.63943    8      0.2      2.1     diag,B
   10      0.174D-04      0.804D-06      -288.36166509    740.432894   -0.11445   -0.04308    1.63939    9      0.2      2.3     orth
   11      0.584D-05      0.243D-06      -288.36166509    740.432896   -0.11445   -0.04308    1.63942    9      0.2      2.5     diag,B
   12      0.155D-05      0.737D-07      -288.36166509    740.432889   -0.11445   -0.04308    1.63944    9      0.2      2.7     diag,B
   13      0.311D-06      0.320D-07      -288.36166509    740.432885   -0.11445   -0.04308    1.63944    0      0.2      2.9     orth

 Final alpha occupancy:  28
 Final beta  occupancy:  27

 !RHF STATE  1.1 Energy              -288.361665089847
 Nuclear energy                       275.70817015
 One-electron energy                 -934.28627784
 Two-electron energy                  370.21644260
 Virial quotient                       -1.00680784
 !RHF STATE  1.1 Dipole moment         -0.11445169    -0.04308226     1.63943652
 Dipole moment /Debye                  -0.29088811    -0.10949701     4.16675908

 Orbital energies:

         1.1          2.1          3.1          4.1          5.1          6.1          7.1          8.1          9.1         10.1
    -15.592641   -11.291335   -11.246750   -11.244969   -11.243934   -11.242577   -11.239168    -1.205717    -1.088407    -0.997104

        11.1         12.1         13.1         14.1         15.1         16.1         17.1         18.1         19.1         20.1
     -0.940315    -0.861368    -0.781930    -0.724005    -0.631077    -0.624398    -0.598168    -0.575224    -0.565807    -0.547432

        21.1         22.1         23.1         24.1         25.1         26.1         27.1         28.1         29.1         30.1
     -0.545110    -0.525552    -0.501852    -0.488453    -0.484725    -0.481223    -0.480751    -0.353407     0.152478     0.161665


 HOMO     28.1    -0.353407 =      -9.6167eV
 LUMO     29.1     0.152478 =       4.1492eV
 LUMO-HOMO         0.505885 =      13.7658eV


 **********************************************************************************************************************************
 DATASETS  * FILE   NREC   LENGTH (MB)   RECORD NAMES
              1      18       31.21       500      610      700      900      950      970     1000      129      960     1100   
                                          VAR    BASINP    GEOM    SYMINP    ZMAT    AOBASIS   BASIS     P2S    ABASIS      S 
                                         1400     1410     1200     1210     1080     1600     1650     1700   
                                           T        V       H0       H01     AOSYM     SMH    MOLCAS    OPER   

              2       4        3.88       700     1000      520     2100   
                                         GEOM     BASIS   MCVARS     RHF  

 PROGRAMS   *        TOTAL     DF-HF       INT
 CPU TIMES  *         3.32      2.86      0.32
 REAL TIME  *         3.84 SEC
 DISK USED  *        38.78 MB (local),      155.11 MB (total)
 SF USED    *        35.37 MB
 GA USED    *         3.27 MB       (max)       0.00 MB       (current)
 **********************************************************************************************************************************

 Density functional group PBE=PBEX+PBEC
 Functional: PBEX(Automatically generated (new) PBEX)                          Gradient terms: 1
 Functional: PBEC(Automatically generated (new) PBEC)                          Gradient terms: 1
 Use libxcgrid:  F
 Use grid at  1800.2

 Functional: PBEX                      Factor:  1.0000
 Functional: PBEC                      Factor:  1.0000

 Generated new metagrid on record  1800.2 with target accuracy 1.0D-06 and 65784 points in CPU time    0.5
 Computed new grid on record 1800.1 in CPU time    0.6
  129907 words reserved for DFT integration

 PROGRAM * UKS-SCF (Unrestricted Kohn-Sham)     Authors: W. Meyer, H.-J. Werner, P.J. Knowles, 1993

 NUMBER OF ELECTRONS:      28+   27-    SPACE SYMMETRY=1    SPIN SYMMETRY: Doublet 
 CONVERGENCE THRESHOLDS:    1.00E-06 (Density)    1.00E-06 (Energy)
 INTEGRAL THRESHOLDS:       1.00E-11 (Initial)    1.00E-11 (Final)
 MAX. NUMBER OF ITERATIONS:       60
 INTERPOLATION TYPE:            DIIS
 INTERPOLATION STEPS:              2 (START)      1 (STEP)
 LEVEL SHIFTS:                 -0.20 (ALPHA)  -0.20 (BETA) 



 Use fine grid record 1800.2 for energy threshold  1.0D-06

 Basis set DEF2-SVP/JFIT generated.      Number of basis functions:   475 
 Coulomb fitting
 Screening thresholds:    THRAO_COUL= 1.0D-14    THRAO= 1.0D-12    THROV= 1.0D-12

 Reserved 1 MW to cache 100.0% of significant integrals (4 MW global). CPU: 0.1 sec

 Molecular orbitals read from record     2100.2  Type=RHF/CANONICAL (state 1.1)

 Molecular orbital dump at record        2200.2

 Initial alpha occupation  28
 Initial beta  occupation  27

 ITERATION    DDIFF          GRAD             ENERGY        2-EL.EN.            DIPOLE MOMENTS         DIIS  CPU(IT) CPU(TOT)
    1      0.000D+00      0.000D+00      -289.87050375    823.934242   -0.11445   -0.04308    1.63944    0      0.2      0.3
    2      0.429D-02      0.217D-02      -289.91259013    827.062708   -0.10690   -0.04937    1.55566    1      0.2      0.5
    3      0.153D-02      0.457D-03      -289.91660101    825.696081   -0.10381   -0.04674    1.54245    2      0.2      0.6
    4      0.834D-03      0.208D-03      -289.91769905    826.227713   -0.10385   -0.05030    1.51656    3      0.2      0.8
    5      0.337D-03      0.928D-04      -289.91786070    826.157874   -0.10686   -0.04941    1.56732    4      0.2      0.9
    6      0.190D-03      0.897D-04      -289.91797801    826.078895   -0.10312   -0.04981    1.53883    5      0.2      1.1
    7      0.959D-04      0.220D-04      -289.91799471    826.097063   -0.10419   -0.05056    1.54440    6      0.2      1.3
    8      0.371D-04      0.875D-05      -289.91799683    826.094263   -0.10355   -0.05059    1.54414    7      0.2      1.4
    9      0.129D-04      0.279D-05      -289.91799707    826.096370   -0.10363   -0.05055    1.54438    8      0.2      1.6
   10      0.593D-05      0.130D-05      -289.91799711    826.094738   -0.10360   -0.05061    1.54427    8      0.2      1.8
   11      0.233D-05      0.298D-06      -289.91799711    826.094855   -0.10360   -0.05062    1.54421    8      0.2      1.9
   12      0.668D-06      0.111D-06      -289.91799712    826.094924   -0.10361   -0.05061    1.54421    8      0.2      2.1
   13      0.420D-06      0.682D-07      -289.91799712    826.094860   -0.10360   -0.05061    1.54419    7      0.2      2.3

 Final alpha occupancy:  28
 Final beta  occupancy:  27

 !UKS STATE  1.1 Energy              -289.917997115509
 Nuclear energy                       275.70817015
 One-electron energy                 -935.39562354
 Two-electron energy                  413.04742977
 Density functional                   -43.27797350     PBEX=-41.51503390 PBEC= -1.76293960
 Virial quotient                       -1.01214346
 !UKS STATE  1.1 Dipole moment         -0.10360472    -0.05061141     1.54418668
 Dipole moment /Debye                  -0.26331970    -0.12863294     3.92467397

 Orbital energies for positive spin:

         1.1          2.1          3.1          4.1          5.1          6.1          7.1          8.1          9.1         10.1
    -14.001646    -9.936594    -9.924487    -9.912447    -9.907742    -9.906695    -9.901996    -0.811440    -0.743548    -0.670299

        11.1         12.1         13.1         14.1         15.1         16.1         17.1         18.1         19.1         20.1
     -0.629061    -0.571142    -0.522383    -0.480687    -0.418081    -0.416680    -0.394820    -0.376360    -0.351639    -0.348992

        21.1         22.1         23.1         24.1         25.1         26.1         27.1         28.1         29.1         30.1
     -0.332703    -0.317068    -0.310681    -0.308824    -0.308464    -0.305407    -0.303193    -0.161479    -0.017647    -0.014435

 Orbital energies for negative spin:

         1.1          2.1          3.1          4.1          5.1          6.1          7.1          8.1          9.1         10.1
    -14.001645    -9.935992    -9.913073    -9.912263    -9.908386    -9.907369    -9.901869    -0.811127    -0.731794    -0.667411

        11.1         12.1         13.1         14.1         15.1         16.1         17.1         18.1         19.1         20.1
     -0.626776    -0.568035    -0.519294    -0.469213    -0.413309    -0.409254    -0.389743    -0.370902    -0.347691    -0.347279

        21.1         22.1         23.1         24.1         25.1         26.1         27.1         28.1         29.1         30.1
     -0.331599    -0.313815    -0.310378    -0.308083    -0.308056    -0.302630    -0.299344    -0.096959    -0.016958    -0.013646


 HOMO     28.1    -0.161479 =      -4.3941eV
 LUMO    -28.1    -0.096959 =      -2.6384eV
 LUMO-HOMO         0.064520 =       1.7557eV

 EXPECTATION VALUE OF S**2:             0.75315631

 Occupation number threshold for pseudo-canonical orbitals: 1.9990 (occupied), 0.0010 (virtual)

 Number of pseudo-canonical occupied orbitals per symmetry:   27
 Number of active natural orbitals per symmetry:               1

 Natural orbitals saved to record    2200.2 (Orbital set 3)

 Orbital spaces for UNO-CAS (Min. occupation: 0.020  Max. occupation: 1.980):

 Closed:       27
 Active:        1


 **********************************************************************************************************************************
 DATASETS  * FILE   NREC   LENGTH (MB)   RECORD NAMES
              1      19       31.21       500      610      700      900      950      970     1000      129      960     1100   
                                          VAR    BASINP    GEOM    SYMINP    ZMAT    AOBASIS   BASIS     P2S    ABASIS      S 
                                         1400     1410     1200     1210     1080     1600     1650     1700     1800   
                                           T        V       H0       H01     AOSYM     SMH    MOLCAS    OPER     GRID   

              2       6        7.61       700     1000      520     2100     1800     2200   
                                         GEOM     BASIS   MCVARS     RHF     GRID      UKS  

 PROGRAMS   *        TOTAL    DF-UKS     DF-HF       INT
 CPU TIMES  *         6.25      2.92      2.86      0.32
 REAL TIME  *         6.95 SEC
 DISK USED  *        38.89 MB (local),      155.54 MB (total)
 SF USED    *        35.37 MB
 GA USED    *         3.27 MB       (max)       2.17 MB       (current)
 **********************************************************************************************************************************


 PROGRAM * OPT (Geometry optimization)     Authors: F. Eckert and H.-J. Werner


 BFGS update of hessian


********** USER DEFINED INT/FIX/CONSTRAINTS ****************

List of primitive internal coordinates

     N      Name     Type   Natoms   Atom list

     1    Bo0001     Bond        2      H7   C1  
     2    Bo0002     Bond        2      H7   C17 
     3    An0001     Angle       3      C1   H7   C17 

List of user defined internal/fixed coordinates and constraints

- - - - - - - - - - - - - - - - - - - - - - - - - - - - - - - - - 
    N      Name   Type      Pname     Coeff       Value   Unit
- - - - - - - - - - - - - - - - - - - - - - - - - - - - - - - - - 
    1    Cns001    Con     Bo0001     1.000     1.20000 Angstrom
- - - - - - - - - - - - - - - - - - - - - - - - - - - - - - - - - 
    2    Cns002    Con     Bo0002     1.000     2.40000 Angstrom
- - - - - - - - - - - - - - - - - - - - - - - - - - - - - - - - - 
    3    Cns003    Con     An0001     1.000   180.00000   Degree
- - - - - - - - - - - - - - - - - - - - - - - - - - - - - - - - - 


******************************************************************



 *** Long output written to logfile /mnt/storage/home/lb17101/optimizations/7/7_1.20_2.40.log ***


 Geometry optimization using default procedure for command CF-UKS-SCF

 Geometry written to block  1 of record 700

 SLAPAF optimizer by R. Lindh and Ignacio F. Galvan entered

 Constraints section
ConstraintsConstraintsConstraintsConstraintsConstraintsConstraintsConstraintsConstraintsConstraintsConstraints
ConstraintsConstraintsConstraintsConstraintsConstraintsConstraintsConstraintsConstraintsConstraintsConstraints
Constraints                                                                                        Constraints
Constraints                                 C O N S T R A I N T S                                  Constraints
Constraints                                                                                        Constraints

************************************************************************************************************************
BO0001 = BOND       H7    C1
BO0002 = BOND       H7    C17
AN0001 = ANGLE      C1    H7    C17
VALUES
BO0001 =      1.20000000 ANGSTROM
BO0002 =      2.40000000 ANGSTROM
AN0001 =    180.00000000 DEGREE
************************************************************************************************************************


 *************************************************************
 * Values of the primitive constraints                       *
 *************************************************************
 BO0001   : Bond Length=  2.310086 / Angstrom  4.365431 / bohr
 BO0002   : Bond Length=  1.100000 / Angstrom  2.078699 / bohr
  Valence angle close to end in range of definition
 AN0001   : Angle=      178.1204   / Degree    3.108788 / rad

 *******************************************
 * Values of the constraints   / au or rad *
 *******************************************
   Label        C         C0
 Cns001      4.365431  2.267671
 Cns002      2.078699  4.535343
 Cns003      3.108788  3.141593


 ITER.   ENERGY(OLD)    ENERGY(NEW)      DE          GRADMAX     GRADNORM    GRADRMS     STEPMAX     STEPLEN     STEPRMS   CPU-time
   1  -289.91799712  -289.91603474     0.00196238  0.00120714  0.00190236  0.00025197  0.19163992  0.38745670  0.00679749      3.66

 Constraints section
ConstraintsConstraintsConstraintsConstraintsConstraintsConstraintsConstraintsConstraintsConstraintsConstraints
ConstraintsConstraintsConstraintsConstraintsConstraintsConstraintsConstraintsConstraintsConstraintsConstraints
Constraints                                                                                        Constraints
Constraints                                 C O N S T R A I N T S                                  Constraints
Constraints                                                                                        Constraints

************************************************************************************************************************
BO0001 = BOND       H7    C1
BO0002 = BOND       H7    C17
AN0001 = ANGLE      C1    H7    C17
VALUES
BO0001 =      1.20000000 ANGSTROM
BO0002 =      2.40000000 ANGSTROM
AN0001 =    180.00000000 DEGREE
************************************************************************************************************************


 *************************************************************
 * Values of the primitive constraints                       *
 *************************************************************
 BO0001   : Bond Length=  2.258544 / Angstrom  4.268030 / bohr
 BO0002   : Bond Length=  1.160360 / Angstrom  2.192763 / bohr
  Valence angle close to end in range of definition
 AN0001   : Angle=      177.8733   / Degree    3.104474 / rad

 *******************************************
 * Values of the constraints   / au or rad *
 *******************************************
   Label        C         C0
 Cns001      4.268030  2.267671
 Cns002      2.192763  4.535343
 Cns003      3.104474  3.141593

   2  -289.91603474  -289.91015880     0.00587593  0.05069086  0.06236345  0.00826024  0.55160669  1.24537813  0.02184874      7.31

 Constraints section
ConstraintsConstraintsConstraintsConstraintsConstraintsConstraintsConstraintsConstraintsConstraintsConstraints
ConstraintsConstraintsConstraintsConstraintsConstraintsConstraintsConstraintsConstraintsConstraintsConstraints
Constraints                                                                                        Constraints
Constraints                                 C O N S T R A I N T S                                  Constraints
Constraints                                                                                        Constraints

************************************************************************************************************************
BO0001 = BOND       H7    C1
BO0002 = BOND       H7    C17
AN0001 = ANGLE      C1    H7    C17
VALUES
BO0001 =      1.20000000 ANGSTROM
BO0002 =      2.40000000 ANGSTROM
AN0001 =    180.00000000 DEGREE
************************************************************************************************************************


 *************************************************************
 * Values of the primitive constraints                       *
 *************************************************************
 BO0001   : Bond Length=  2.207003 / Angstrom  4.170631 / bohr
 BO0002   : Bond Length=  1.220719 / Angstrom  2.306825 / bohr
  Valence angle close to end in range of definition
 AN0001   : Angle=      177.7291   / Degree    3.101958 / rad

 *******************************************
 * Values of the constraints   / au or rad *
 *******************************************
   Label        C         C0
 Cns001      4.170631  2.267671
 Cns002      2.306825  4.535343
 Cns003      3.101958  3.141593

   3  -289.91015880  -289.88960771     0.02055110  0.04988545  0.06577967  0.00871273  0.27486602  0.65247390  0.01144691     11.26

 Constraints section
ConstraintsConstraintsConstraintsConstraintsConstraintsConstraintsConstraintsConstraintsConstraintsConstraints
ConstraintsConstraintsConstraintsConstraintsConstraintsConstraintsConstraintsConstraintsConstraintsConstraints
Constraints                                                                                        Constraints
Constraints                                 C O N S T R A I N T S                                  Constraints
Constraints                                                                                        Constraints

************************************************************************************************************************
BO0001 = BOND       H7    C1
BO0002 = BOND       H7    C17
AN0001 = ANGLE      C1    H7    C17
VALUES
BO0001 =      1.20000000 ANGSTROM
BO0002 =      2.40000000 ANGSTROM
AN0001 =    180.00000000 DEGREE
************************************************************************************************************************


 *************************************************************
 * Values of the primitive constraints                       *
 *************************************************************
 BO0001   : Bond Length=  2.062698 / Angstrom  3.897935 / bohr
 BO0002   : Bond Length=  1.389711 / Angstrom  2.626174 / bohr
  Valence angle close to end in range of definition
 AN0001   : Angle=      177.9668   / Degree    3.106107 / rad

 *******************************************
 * Values of the constraints   / au or rad *
 *******************************************
   Label        C         C0
 Cns001      3.897935  2.267671
 Cns002      2.626174  4.535343
 Cns003      3.106107  3.141593

   4  -289.88960771  -289.87705081     0.01255689  0.07840586  0.10604536  0.01404605  0.12444276  0.22341167  0.00391950     15.05

 Constraints section
ConstraintsConstraintsConstraintsConstraintsConstraintsConstraintsConstraintsConstraintsConstraintsConstraints
ConstraintsConstraintsConstraintsConstraintsConstraintsConstraintsConstraintsConstraintsConstraintsConstraints
Constraints                                                                                        Constraints
Constraints                                 C O N S T R A I N T S                                  Constraints
Constraints                                                                                        Constraints

************************************************************************************************************************
BO0001 = BOND       H7    C1
BO0002 = BOND       H7    C17
AN0001 = ANGLE      C1    H7    C17
VALUES
BO0001 =      1.20000000 ANGSTROM
BO0002 =      2.40000000 ANGSTROM
AN0001 =    180.00000000 DEGREE
************************************************************************************************************************


 *************************************************************
 * Values of the primitive constraints                       *
 *************************************************************
 BO0001   : Bond Length=  1.995230 / Angstrom  3.770439 / bohr
 BO0002   : Bond Length=  1.468722 / Angstrom  2.775482 / bohr
  Valence angle close to end in range of definition
 AN0001   : Angle=      178.1255   / Degree    3.108876 / rad

 *******************************************
 * Values of the constraints   / au or rad *
 *******************************************
   Label        C         C0
 Cns001      3.770439  2.267671
 Cns002      2.775482  4.535343
 Cns003      3.108876  3.141593

   5  -289.87705081  -289.86028851     0.01676231  0.15284494  0.18551408  0.02457194  0.09441126  0.21355477  0.00374657     19.07

 Constraints section
ConstraintsConstraintsConstraintsConstraintsConstraintsConstraintsConstraintsConstraintsConstraintsConstraints
ConstraintsConstraintsConstraintsConstraintsConstraintsConstraintsConstraintsConstraintsConstraintsConstraints
Constraints                                                                                        Constraints
Constraints                                 C O N S T R A I N T S                                  Constraints
Constraints                                                                                        Constraints

************************************************************************************************************************
BO0001 = BOND       H7    C1
BO0002 = BOND       H7    C17
AN0001 = ANGLE      C1    H7    C17
VALUES
BO0001 =      1.20000000 ANGSTROM
BO0002 =      2.40000000 ANGSTROM
AN0001 =    180.00000000 DEGREE
************************************************************************************************************************


 *************************************************************
 * Values of the primitive constraints                       *
 *************************************************************
 BO0001   : Bond Length=  1.943691 / Angstrom  3.673043 / bohr
 BO0002   : Bond Length=  1.529079 / Angstrom  2.889540 / bohr
  Valence angle close to end in range of definition
 AN0001   : Angle=      178.2434   / Degree    3.110935 / rad

 *******************************************
 * Values of the constraints   / au or rad *
 *******************************************
   Label        C         C0
 Cns001      3.673043  2.267671
 Cns002      2.889540  4.535343
 Cns003      3.110935  3.141593

   6  -289.86028851  -289.84774567     0.01254283  0.26187411  0.33178610  0.04394614  0.33949395  0.79866390  0.01401165     23.02

 Constraints section
ConstraintsConstraintsConstraintsConstraintsConstraintsConstraintsConstraintsConstraintsConstraintsConstraints
ConstraintsConstraintsConstraintsConstraintsConstraintsConstraintsConstraintsConstraintsConstraintsConstraints
Constraints                                                                                        Constraints
Constraints                                 C O N S T R A I N T S                                  Constraints
Constraints                                                                                        Constraints

************************************************************************************************************************
BO0001 = BOND       H7    C1
BO0002 = BOND       H7    C17
AN0001 = ANGLE      C1    H7    C17
VALUES
BO0001 =      1.20000000 ANGSTROM
BO0002 =      2.40000000 ANGSTROM
AN0001 =    180.00000000 DEGREE
************************************************************************************************************************


 *************************************************************
 * Values of the primitive constraints                       *
 *************************************************************
 BO0001   : Bond Length=  1.892151 / Angstrom  3.575647 / bohr
 BO0002   : Bond Length=  1.589436 / Angstrom  3.003599 / bohr
  Valence angle close to end in range of definition
 AN0001   : Angle=      178.2582   / Degree    3.111192 / rad

 *******************************************
 * Values of the constraints   / au or rad *
 *******************************************
   Label        C         C0
 Cns001      3.575647  2.267671
 Cns002      3.003599  4.535343
 Cns003      3.111192  3.141593

   7  -289.84774567  -289.82457767     0.02316800  0.29998132  0.38563271  0.05107830  0.12769569  0.17815827  0.00312558     26.96

 Constraints section
ConstraintsConstraintsConstraintsConstraintsConstraintsConstraintsConstraintsConstraintsConstraintsConstraints
ConstraintsConstraintsConstraintsConstraintsConstraintsConstraintsConstraintsConstraintsConstraintsConstraints
Constraints                                                                                        Constraints
Constraints                                 C O N S T R A I N T S                                  Constraints
Constraints                                                                                        Constraints

************************************************************************************************************************
BO0001 = BOND       H7    C1
BO0002 = BOND       H7    C17
AN0001 = ANGLE      C1    H7    C17
VALUES
BO0001 =      1.20000000 ANGSTROM
BO0002 =      2.40000000 ANGSTROM
AN0001 =    180.00000000 DEGREE
************************************************************************************************************************


 *************************************************************
 * Values of the primitive constraints                       *
 *************************************************************
 BO0001   : Bond Length=  1.820992 / Angstrom  3.441176 / bohr
 BO0002   : Bond Length=  1.672769 / Angstrom  3.161075 / bohr
  Valence angle close to end in range of definition
 AN0001   : Angle=      178.4311   / Degree    3.114210 / rad

 *******************************************
 * Values of the constraints   / au or rad *
 *******************************************
   Label        C         C0
 Cns001      3.441176  2.267671
 Cns002      3.161075  4.535343
 Cns003      3.114210  3.141593

   8  -289.82457767  -289.78733469     0.03724298  0.40130168  0.53167246  0.07042174  0.09213497  0.19993712  0.00350767     30.80

 Constraints section
ConstraintsConstraintsConstraintsConstraintsConstraintsConstraintsConstraintsConstraintsConstraintsConstraints
ConstraintsConstraintsConstraintsConstraintsConstraintsConstraintsConstraintsConstraintsConstraintsConstraints
Constraints                                                                                        Constraints
Constraints                                 C O N S T R A I N T S                                  Constraints
Constraints                                                                                        Constraints

************************************************************************************************************************
BO0001 = BOND       H7    C1
BO0002 = BOND       H7    C17
AN0001 = ANGLE      C1    H7    C17
VALUES
BO0001 =      1.20000000 ANGSTROM
BO0002 =      2.40000000 ANGSTROM
AN0001 =    180.00000000 DEGREE
************************************************************************************************************************


 *************************************************************
 * Values of the primitive constraints                       *
 *************************************************************
 BO0001   : Bond Length=  1.769453 / Angstrom  3.343781 / bohr
 BO0002   : Bond Length=  1.733125 / Angstrom  3.275132 / bohr
  Valence angle close to end in range of definition
 AN0001   : Angle=      178.5547   / Degree    3.116367 / rad

 *******************************************
 * Values of the constraints   / au or rad *
 *******************************************
   Label        C         C0
 Cns001      3.343781  2.267671
 Cns002      3.275132  4.535343
 Cns003      3.116367  3.141593

   9  -289.78733469  -289.81961899    -0.03228430  0.58349510  0.79297012  0.10503146  0.19210123  0.49915654  0.00875713     34.70

 Constraints section
ConstraintsConstraintsConstraintsConstraintsConstraintsConstraintsConstraintsConstraintsConstraintsConstraints
ConstraintsConstraintsConstraintsConstraintsConstraintsConstraintsConstraintsConstraintsConstraintsConstraints
Constraints                                                                                        Constraints
Constraints                                 C O N S T R A I N T S                                  Constraints
Constraints                                                                                        Constraints

************************************************************************************************************************
BO0001 = BOND       H7    C1
BO0002 = BOND       H7    C17
AN0001 = ANGLE      C1    H7    C17
VALUES
BO0001 =      1.20000000 ANGSTROM
BO0002 =      2.40000000 ANGSTROM
AN0001 =    180.00000000 DEGREE
************************************************************************************************************************


 *************************************************************
 * Values of the primitive constraints                       *
 *************************************************************
 BO0001   : Bond Length=  1.717914 / Angstrom  3.246387 / bohr
 BO0002   : Bond Length=  1.793481 / Angstrom  3.389189 / bohr
  Valence angle close to end in range of definition
 AN0001   : Angle=      178.6008   / Degree    3.117173 / rad

 *******************************************
 * Values of the constraints   / au or rad *
 *******************************************
   Label        C         C0
 Cns001      3.246387  2.267671
 Cns002      3.389189  4.535343
 Cns003      3.117173  3.141593

  10  -289.81961899  -289.83160100    -0.01198201  0.35386675  0.47167902  0.06247541  0.09535571  0.12856700  0.00225556     38.62

 Constraints section
ConstraintsConstraintsConstraintsConstraintsConstraintsConstraintsConstraintsConstraintsConstraintsConstraints
ConstraintsConstraintsConstraintsConstraintsConstraintsConstraintsConstraintsConstraintsConstraintsConstraints
Constraints                                                                                        Constraints
Constraints                                 C O N S T R A I N T S                                  Constraints
Constraints                                                                                        Constraints

************************************************************************************************************************
BO0001 = BOND       H7    C1
BO0002 = BOND       H7    C17
AN0001 = ANGLE      C1    H7    C17
VALUES
BO0001 =      1.20000000 ANGSTROM
BO0002 =      2.40000000 ANGSTROM
AN0001 =    180.00000000 DEGREE
************************************************************************************************************************


 *************************************************************
 * Values of the primitive constraints                       *
 *************************************************************
 BO0001   : Bond Length=  1.666376 / Angstrom  3.148994 / bohr
 BO0002   : Bond Length=  1.853836 / Angstrom  3.503243 / bohr
  Valence angle close to end in range of definition
 AN0001   : Angle=      178.7398   / Degree    3.119598 / rad

 *******************************************
 * Values of the constraints   / au or rad *
 *******************************************
   Label        C         C0
 Cns001      3.148994  2.267671
 Cns002      3.503243  4.535343
 Cns003      3.119598  3.141593

  11  -289.83160100  -289.84070142    -0.00910041  0.23372126  0.30880782  0.04090259  0.10216705  0.14682873  0.00257594     42.29

 Constraints section
ConstraintsConstraintsConstraintsConstraintsConstraintsConstraintsConstraintsConstraintsConstraintsConstraints
ConstraintsConstraintsConstraintsConstraintsConstraintsConstraintsConstraintsConstraintsConstraintsConstraints
Constraints                                                                                        Constraints
Constraints                                 C O N S T R A I N T S                                  Constraints
Constraints                                                                                        Constraints

************************************************************************************************************************
BO0001 = BOND       H7    C1
BO0002 = BOND       H7    C17
AN0001 = ANGLE      C1    H7    C17
VALUES
BO0001 =      1.20000000 ANGSTROM
BO0002 =      2.40000000 ANGSTROM
AN0001 =    180.00000000 DEGREE
************************************************************************************************************************


 *************************************************************
 * Values of the primitive constraints                       *
 *************************************************************
 BO0001   : Bond Length=  1.614838 / Angstrom  3.051602 / bohr
 BO0002   : Bond Length=  1.914192 / Angstrom  3.617298 / bohr
  Valence angle close to end in range of definition
 AN0001   : Angle=      178.8788   / Degree    3.122025 / rad

 *******************************************
 * Values of the constraints   / au or rad *
 *******************************************
   Label        C         C0
 Cns001      3.051602  2.267671
 Cns002      3.617298  4.535343
 Cns003      3.122025  3.141593

  12  -289.84070142  -289.84218880    -0.00148738  0.09934206  0.13713163  0.01816353  0.14624356  0.24743486  0.00434096     46.23

 Constraints section
ConstraintsConstraintsConstraintsConstraintsConstraintsConstraintsConstraintsConstraintsConstraintsConstraints
ConstraintsConstraintsConstraintsConstraintsConstraintsConstraintsConstraintsConstraintsConstraintsConstraints
Constraints                                                                                        Constraints
Constraints                                 C O N S T R A I N T S                                  Constraints
Constraints                                                                                        Constraints

************************************************************************************************************************
BO0001 = BOND       H7    C1
BO0002 = BOND       H7    C17
AN0001 = ANGLE      C1    H7    C17
VALUES
BO0001 =      1.20000000 ANGSTROM
BO0002 =      2.40000000 ANGSTROM
AN0001 =    180.00000000 DEGREE
************************************************************************************************************************


 *************************************************************
 * Values of the primitive constraints                       *
 *************************************************************
 BO0001   : Bond Length=  1.563300 / Angstrom  2.954209 / bohr
 BO0002   : Bond Length=  1.974547 / Angstrom  3.731352 / bohr
  Valence angle close to end in range of definition
 AN0001   : Angle=      179.0176   / Degree    3.124446 / rad

 *******************************************
 * Values of the constraints   / au or rad *
 *******************************************
   Label        C         C0
 Cns001      2.954209  2.267671
 Cns002      3.731352  4.535343
 Cns003      3.124446  3.141593

  13  -289.84218880  -289.84001372     0.00217508  0.05974698  0.09564087  0.01266794  0.23904577  0.60818858  0.01066998     50.12

 Constraints section
ConstraintsConstraintsConstraintsConstraintsConstraintsConstraintsConstraintsConstraintsConstraintsConstraints
ConstraintsConstraintsConstraintsConstraintsConstraintsConstraintsConstraintsConstraintsConstraintsConstraints
Constraints                                                                                        Constraints
Constraints                                 C O N S T R A I N T S                                  Constraints
Constraints                                                                                        Constraints

************************************************************************************************************************
BO0001 = BOND       H7    C1
BO0002 = BOND       H7    C17
AN0001 = ANGLE      C1    H7    C17
VALUES
BO0001 =      1.20000000 ANGSTROM
BO0002 =      2.40000000 ANGSTROM
AN0001 =    180.00000000 DEGREE
************************************************************************************************************************


 *************************************************************
 * Values of the primitive constraints                       *
 *************************************************************
 BO0001   : Bond Length=  1.511762 / Angstrom  2.856817 / bohr
 BO0002   : Bond Length=  2.034901 / Angstrom  3.845406 / bohr
  Valence angle close to end in range of definition
 AN0001   : Angle=      179.1568   / Degree    3.126876 / rad

 *******************************************
 * Values of the constraints   / au or rad *
 *******************************************
   Label        C         C0
 Cns001      2.856817  2.267671
 Cns002      3.845406  4.535343
 Cns003      3.126876  3.141593

  14  -289.84001372  -289.83373092     0.00628280  0.11052631  0.15804803  0.02093397  0.18288633  0.46668106  0.00818739     54.00

 Constraints section
ConstraintsConstraintsConstraintsConstraintsConstraintsConstraintsConstraintsConstraintsConstraintsConstraints
ConstraintsConstraintsConstraintsConstraintsConstraintsConstraintsConstraintsConstraintsConstraintsConstraints
Constraints                                                                                        Constraints
Constraints                                 C O N S T R A I N T S                                  Constraints
Constraints                                                                                        Constraints

************************************************************************************************************************
BO0001 = BOND       H7    C1
BO0002 = BOND       H7    C17
AN0001 = ANGLE      C1    H7    C17
VALUES
BO0001 =      1.20000000 ANGSTROM
BO0002 =      2.40000000 ANGSTROM
AN0001 =    180.00000000 DEGREE
************************************************************************************************************************


 *************************************************************
 * Values of the primitive constraints                       *
 *************************************************************
 BO0001   : Bond Length=  1.453799 / Angstrom  2.747282 / bohr
 BO0002   : Bond Length=  2.102781 / Angstrom  3.973680 / bohr
  Valence angle close to end in range of definition
 AN0001   : Angle=      179.2982   / Degree    3.129343 / rad

 *******************************************
 * Values of the constraints   / au or rad *
 *******************************************
   Label        C         C0
 Cns001      2.747282  2.267671
 Cns002      3.973680  4.535343
 Cns003      3.129343  3.141593

  15  -289.83373092  -289.84128886    -0.00755794  0.15864476  0.22253407  0.02947536  0.23782148  0.45624141  0.00800424     57.95

 Constraints section
ConstraintsConstraintsConstraintsConstraintsConstraintsConstraintsConstraintsConstraintsConstraintsConstraints
ConstraintsConstraintsConstraintsConstraintsConstraintsConstraintsConstraintsConstraintsConstraintsConstraints
Constraints                                                                                        Constraints
Constraints                                 C O N S T R A I N T S                                  Constraints
Constraints                                                                                        Constraints

************************************************************************************************************************
BO0001 = BOND       H7    C1
BO0002 = BOND       H7    C17
AN0001 = ANGLE      C1    H7    C17
VALUES
BO0001 =      1.20000000 ANGSTROM
BO0002 =      2.40000000 ANGSTROM
AN0001 =    180.00000000 DEGREE
************************************************************************************************************************


 *************************************************************
 * Values of the primitive constraints                       *
 *************************************************************
 BO0001   : Bond Length=  1.402262 / Angstrom  2.649890 / bohr
 BO0002   : Bond Length=  2.163135 / Angstrom  4.087734 / bohr
  Valence angle close to end in range of definition
 AN0001   : Angle=      179.4341   / Degree    3.131715 / rad

 *******************************************
 * Values of the constraints   / au or rad *
 *******************************************
   Label        C         C0
 Cns001      2.649890  2.267671
 Cns002      4.087734  4.535343
 Cns003      3.131715  3.141593

  16  -289.84128886  -289.86033195    -0.01904309  0.14777004  0.20968042  0.02777285  0.16590985  0.50289292  0.00882268     61.69

 Constraints section
ConstraintsConstraintsConstraintsConstraintsConstraintsConstraintsConstraintsConstraintsConstraintsConstraints
ConstraintsConstraintsConstraintsConstraintsConstraintsConstraintsConstraintsConstraintsConstraintsConstraints
Constraints                                                                                        Constraints
Constraints                                 C O N S T R A I N T S                                  Constraints
Constraints                                                                                        Constraints

************************************************************************************************************************
BO0001 = BOND       H7    C1
BO0002 = BOND       H7    C17
AN0001 = ANGLE      C1    H7    C17
VALUES
BO0001 =      1.20000000 ANGSTROM
BO0002 =      2.40000000 ANGSTROM
AN0001 =    180.00000000 DEGREE
************************************************************************************************************************


 *************************************************************
 * Values of the primitive constraints                       *
 *************************************************************
 BO0001   : Bond Length=  1.349490 / Angstrom  2.550167 / bohr
 BO0002   : Bond Length=  2.224935 / Angstrom  4.204517 / bohr
  Valence angle close to end in range of definition
 AN0001   : Angle=      179.5340   / Degree    3.133460 / rad

 *******************************************
 * Values of the constraints   / au or rad *
 *******************************************
   Label        C         C0
 Cns001      2.550167  2.267671
 Cns002      4.204517  4.535343
 Cns003      3.133460  3.141593

  17  -289.86033195  -289.86573279    -0.00540084  0.04753073  0.06742527  0.00893070  0.12485012  0.30595966  0.00536771     65.78

 Constraints section
ConstraintsConstraintsConstraintsConstraintsConstraintsConstraintsConstraintsConstraintsConstraintsConstraints
ConstraintsConstraintsConstraintsConstraintsConstraintsConstraintsConstraintsConstraintsConstraintsConstraints
Constraints                                                                                        Constraints
Constraints                                 C O N S T R A I N T S                                  Constraints
Constraints                                                                                        Constraints

************************************************************************************************************************
BO0001 = BOND       H7    C1
BO0002 = BOND       H7    C17
AN0001 = ANGLE      C1    H7    C17
VALUES
BO0001 =      1.20000000 ANGSTROM
BO0002 =      2.40000000 ANGSTROM
AN0001 =    180.00000000 DEGREE
************************************************************************************************************************


 *************************************************************
 * Values of the primitive constraints                       *
 *************************************************************
 BO0001   : Bond Length=  1.260405 / Angstrom  2.381819 / bohr
 BO0002   : Bond Length=  2.329261 / Angstrom  4.401666 / bohr
  Valence angle close to end in range of definition
 AN0001   : Angle=      179.6528   / Degree    3.135532 / rad

 *******************************************
 * Values of the constraints   / au or rad *
 *******************************************
   Label        C         C0
 Cns001      2.381819  2.267671
 Cns002      4.401666  4.535343
 Cns003      3.135532  3.141593

  18  -289.86573279  -289.86849447    -0.00276168  0.03955755  0.05365611  0.00710693  0.24029519  0.43535234  0.00763776     69.87

 Constraints section
ConstraintsConstraintsConstraintsConstraintsConstraintsConstraintsConstraintsConstraintsConstraintsConstraints
ConstraintsConstraintsConstraintsConstraintsConstraintsConstraintsConstraintsConstraintsConstraintsConstraints
Constraints                                                                                        Constraints
Constraints                                 C O N S T R A I N T S                                  Constraints
Constraints                                                                                        Constraints

************************************************************************************************************************
BO0001 = BOND       H7    C1
BO0002 = BOND       H7    C17
AN0001 = ANGLE      C1    H7    C17
VALUES
BO0001 =      1.20000000 ANGSTROM
BO0002 =      2.40000000 ANGSTROM
AN0001 =    180.00000000 DEGREE
************************************************************************************************************************


 *************************************************************
 * Values of the primitive constraints                       *
 *************************************************************
 BO0001   : Bond Length=  1.208893 / Angstrom  2.284476 / bohr
 BO0002   : Bond Length=  2.389586 / Angstrom  4.515663 / bohr
  Valence angle close to end in range of definition
 AN0001   : Angle=      179.6274   / Degree    3.135090 / rad

 *******************************************
 * Values of the constraints   / au or rad *
 *******************************************
   Label        C         C0
 Cns001      2.284476  2.267671
 Cns002      4.515663  4.535343
 Cns003      3.135090  3.141593

  19  -289.86849447  -289.86951978    -0.00102531  0.03545272  0.06078503  0.00805117  0.42878779  0.58620428  0.01028429     73.85

 Constraints section
ConstraintsConstraintsConstraintsConstraintsConstraintsConstraintsConstraintsConstraintsConstraintsConstraints
ConstraintsConstraintsConstraintsConstraintsConstraintsConstraintsConstraintsConstraintsConstraintsConstraints
Constraints                                                                                        Constraints
Constraints                                 C O N S T R A I N T S                                  Constraints
Constraints                                                                                        Constraints

************************************************************************************************************************
BO0001 = BOND       H7    C1
BO0002 = BOND       H7    C17
AN0001 = ANGLE      C1    H7    C17
VALUES
BO0001 =      1.20000000 ANGSTROM
BO0002 =      2.40000000 ANGSTROM
AN0001 =    180.00000000 DEGREE
************************************************************************************************************************


 *************************************************************
 * Values of the primitive constraints                       *
 *************************************************************
 BO0001   : Bond Length=  1.200000 / Angstrom  2.267671 / bohr
 BO0002   : Bond Length=  2.400000 / Angstrom  4.535343 / bohr
  Valence angle close to end in range of definition
 AN0001   : Angle=      179.7466   / Degree    3.137171 / rad

 *******************************************
 * Values of the constraints   / au or rad *
 *******************************************
   Label        C         C0
 Cns001      2.267671  2.267671
 Cns002      4.535343  4.535343
 Cns003      3.137171  3.141593

  20  -289.86951978  -289.86981559    -0.00029581  0.02492492  0.03396522  0.00449880  0.32363119  0.46272027  0.00811790     77.93

 Constraints section
ConstraintsConstraintsConstraintsConstraintsConstraintsConstraintsConstraintsConstraintsConstraintsConstraints
ConstraintsConstraintsConstraintsConstraintsConstraintsConstraintsConstraintsConstraintsConstraintsConstraints
Constraints                                                                                        Constraints
Constraints                                 C O N S T R A I N T S                                  Constraints
Constraints                                                                                        Constraints

************************************************************************************************************************
BO0001 = BOND       H7    C1
BO0002 = BOND       H7    C17
AN0001 = ANGLE      C1    H7    C17
VALUES
BO0001 =      1.20000000 ANGSTROM
BO0002 =      2.40000000 ANGSTROM
AN0001 =    180.00000000 DEGREE
************************************************************************************************************************


 *************************************************************
 * Values of the primitive constraints                       *
 *************************************************************
 BO0001   : Bond Length=  1.200000 / Angstrom  2.267671 / bohr
 BO0002   : Bond Length=  2.400000 / Angstrom  4.535343 / bohr
  Valence angle close to end in range of definition
 AN0001   : Angle=      179.9508   / Degree    3.140734 / rad

 *******************************************
 * Values of the constraints   / au or rad *
 *******************************************
   Label        C         C0
 Cns001      2.267671  2.267671
 Cns002      4.535343  4.535343
 Cns003      3.140734  3.141593

  21  -289.86981559  -289.87012254    -0.00030694  0.02220090  0.03129319  0.00414488  0.32550419  0.46255118  0.00811493     81.75

 Constraints section
ConstraintsConstraintsConstraintsConstraintsConstraintsConstraintsConstraintsConstraintsConstraintsConstraints
ConstraintsConstraintsConstraintsConstraintsConstraintsConstraintsConstraintsConstraintsConstraintsConstraints
Constraints                                                                                        Constraints
Constraints                                 C O N S T R A I N T S                                  Constraints
Constraints                                                                                        Constraints

************************************************************************************************************************
BO0001 = BOND       H7    C1
BO0002 = BOND       H7    C17
AN0001 = ANGLE      C1    H7    C17
VALUES
BO0001 =      1.20000000 ANGSTROM
BO0002 =      2.40000000 ANGSTROM
AN0001 =    180.00000000 DEGREE
************************************************************************************************************************


 *************************************************************
 * Values of the primitive constraints                       *
 *************************************************************
 BO0001   : Bond Length=  1.200000 / Angstrom  2.267671 / bohr
 BO0002   : Bond Length=  2.400000 / Angstrom  4.535343 / bohr
  Valence angle close to end in range of definition
 AN0001   : Angle=      179.9666   / Degree    3.141009 / rad

 *******************************************
 * Values of the constraints   / au or rad *
 *******************************************
   Label        C         C0
 Cns001      2.267671  2.267671
 Cns002      4.535343  4.535343
 Cns003      3.141009  3.141593

  22  -289.87012254  -289.87025829    -0.00013576  0.02524071  0.03576966  0.00473781  0.03719597  0.08608768  0.00151031     85.22

 Constraints section
ConstraintsConstraintsConstraintsConstraintsConstraintsConstraintsConstraintsConstraintsConstraintsConstraints
ConstraintsConstraintsConstraintsConstraintsConstraintsConstraintsConstraintsConstraintsConstraintsConstraints
Constraints                                                                                        Constraints
Constraints                                 C O N S T R A I N T S                                  Constraints
Constraints                                                                                        Constraints

************************************************************************************************************************
BO0001 = BOND       H7    C1
BO0002 = BOND       H7    C17
AN0001 = ANGLE      C1    H7    C17
VALUES
BO0001 =      1.20000000 ANGSTROM
BO0002 =      2.40000000 ANGSTROM
AN0001 =    180.00000000 DEGREE
************************************************************************************************************************


 *************************************************************
 * Values of the primitive constraints                       *
 *************************************************************
 BO0001   : Bond Length=  1.200000 / Angstrom  2.267671 / bohr
 BO0002   : Bond Length=  2.400000 / Angstrom  4.535343 / bohr
  Valence angle close to end in range of definition
 AN0001   : Angle=      179.9932   / Degree    3.141473 / rad

 *******************************************
 * Values of the constraints   / au or rad *
 *******************************************
   Label        C         C0
 Cns001      2.267671  2.267671
 Cns002      4.535343  4.535343
 Cns003      3.141473  3.141593

  23  -289.87025829  -289.87039436    -0.00013607  0.02582666  0.03254418  0.00431058  0.06826619  0.17648800  0.00309628     88.90

 Constraints section
ConstraintsConstraintsConstraintsConstraintsConstraintsConstraintsConstraintsConstraintsConstraintsConstraints
ConstraintsConstraintsConstraintsConstraintsConstraintsConstraintsConstraintsConstraintsConstraintsConstraints
Constraints                                                                                        Constraints
Constraints                                 C O N S T R A I N T S                                  Constraints
Constraints                                                                                        Constraints

************************************************************************************************************************
BO0001 = BOND       H7    C1
BO0002 = BOND       H7    C17
AN0001 = ANGLE      C1    H7    C17
VALUES
BO0001 =      1.20000000 ANGSTROM
BO0002 =      2.40000000 ANGSTROM
AN0001 =    180.00000000 DEGREE
************************************************************************************************************************


 *************************************************************
 * Values of the primitive constraints                       *
 *************************************************************
 BO0001   : Bond Length=  1.200000 / Angstrom  2.267671 / bohr
 BO0002   : Bond Length=  2.400000 / Angstrom  4.535343 / bohr
  Valence angle close to end in range of definition
 AN0001   : Angle=      179.9496   / Degree    3.140713 / rad

 *******************************************
 * Values of the constraints   / au or rad *
 *******************************************
   Label        C         C0
 Cns001      2.267671  2.267671
 Cns002      4.535343  4.535343
 Cns003      3.140713  3.141593

  24  -289.87039436  -289.87041753    -0.00002317  0.02552889  0.03216449  0.00426029  0.10093216  0.25763310  0.00451988     92.69

 Constraints section
ConstraintsConstraintsConstraintsConstraintsConstraintsConstraintsConstraintsConstraintsConstraintsConstraints
ConstraintsConstraintsConstraintsConstraintsConstraintsConstraintsConstraintsConstraintsConstraintsConstraints
Constraints                                                                                        Constraints
Constraints                                 C O N S T R A I N T S                                  Constraints
Constraints                                                                                        Constraints

************************************************************************************************************************
BO0001 = BOND       H7    C1
BO0002 = BOND       H7    C17
AN0001 = ANGLE      C1    H7    C17
VALUES
BO0001 =      1.20000000 ANGSTROM
BO0002 =      2.40000000 ANGSTROM
AN0001 =    180.00000000 DEGREE
************************************************************************************************************************


 *************************************************************
 * Values of the primitive constraints                       *
 *************************************************************
 BO0001   : Bond Length=  1.200000 / Angstrom  2.267671 / bohr
 BO0002   : Bond Length=  2.400000 / Angstrom  4.535343 / bohr
  Valence angle close to end in range of definition
 AN0001   : Angle=      179.9903   / Degree    3.141423 / rad

 *******************************************
 * Values of the constraints   / au or rad *
 *******************************************
   Label        C         C0
 Cns001      2.267671  2.267671
 Cns002      4.535343  4.535343
 Cns003      3.141423  3.141593

  25  -289.87041753  -289.87036280     0.00005473  0.02556289  0.03269964  0.00433117  0.35799717  0.51682563  0.00906712     96.78

 Constraints section
ConstraintsConstraintsConstraintsConstraintsConstraintsConstraintsConstraintsConstraintsConstraintsConstraints
ConstraintsConstraintsConstraintsConstraintsConstraintsConstraintsConstraintsConstraintsConstraintsConstraints
Constraints                                                                                        Constraints
Constraints                                 C O N S T R A I N T S                                  Constraints
Constraints                                                                                        Constraints

************************************************************************************************************************
BO0001 = BOND       H7    C1
BO0002 = BOND       H7    C17
AN0001 = ANGLE      C1    H7    C17
VALUES
BO0001 =      1.20000000 ANGSTROM
BO0002 =      2.40000000 ANGSTROM
AN0001 =    180.00000000 DEGREE
************************************************************************************************************************


 *************************************************************
 * Values of the primitive constraints                       *
 *************************************************************
 BO0001   : Bond Length=  1.200000 / Angstrom  2.267671 / bohr
 BO0002   : Bond Length=  2.400000 / Angstrom  4.535343 / bohr
  Valence angle close to end in range of definition
 AN0001   : Angle=      179.8959   / Degree    3.139776 / rad

 *******************************************
 * Values of the constraints   / au or rad *
 *******************************************
   Label        C         C0
 Cns001      2.267671  2.267671
 Cns002      4.535343  4.535343
 Cns003      3.139776  3.141593

  26  -289.87036280  -289.87051603    -0.00015324  0.02566652  0.03338011  0.00442130  0.28332034  0.37241429  0.00653358    100.62

 Constraints section
ConstraintsConstraintsConstraintsConstraintsConstraintsConstraintsConstraintsConstraintsConstraintsConstraints
ConstraintsConstraintsConstraintsConstraintsConstraintsConstraintsConstraintsConstraintsConstraintsConstraints
Constraints                                                                                        Constraints
Constraints                                 C O N S T R A I N T S                                  Constraints
Constraints                                                                                        Constraints

************************************************************************************************************************
BO0001 = BOND       H7    C1
BO0002 = BOND       H7    C17
AN0001 = ANGLE      C1    H7    C17
VALUES
BO0001 =      1.20000000 ANGSTROM
BO0002 =      2.40000000 ANGSTROM
AN0001 =    180.00000000 DEGREE
************************************************************************************************************************


 *************************************************************
 * Values of the primitive constraints                       *
 *************************************************************
 BO0001   : Bond Length=  1.200000 / Angstrom  2.267671 / bohr
 BO0002   : Bond Length=  2.400000 / Angstrom  4.535343 / bohr
  Valence angle close to end in range of definition
 AN0001   : Angle=      179.8402   / Degree    3.138804 / rad

 *******************************************
 * Values of the constraints   / au or rad *
 *******************************************
   Label        C         C0
 Cns001      2.267671  2.267671
 Cns002      4.535343  4.535343
 Cns003      3.138804  3.141593

  27  -289.87051603  -289.87057997    -0.00006394  0.02591483  0.03237715  0.00428846  0.04117939  0.07267840  0.00127506    104.14

 Constraints section
ConstraintsConstraintsConstraintsConstraintsConstraintsConstraintsConstraintsConstraintsConstraintsConstraints
ConstraintsConstraintsConstraintsConstraintsConstraintsConstraintsConstraintsConstraintsConstraintsConstraints
Constraints                                                                                        Constraints
Constraints                                 C O N S T R A I N T S                                  Constraints
Constraints                                                                                        Constraints

************************************************************************************************************************
BO0001 = BOND       H7    C1
BO0002 = BOND       H7    C17
AN0001 = ANGLE      C1    H7    C17
VALUES
BO0001 =      1.20000000 ANGSTROM
BO0002 =      2.40000000 ANGSTROM
AN0001 =    180.00000000 DEGREE
************************************************************************************************************************


 *************************************************************
 * Values of the primitive constraints                       *
 *************************************************************
 BO0001   : Bond Length=  1.200000 / Angstrom  2.267671 / bohr
 BO0002   : Bond Length=  2.400000 / Angstrom  4.535343 / bohr
  Valence angle close to end in range of definition
 AN0001   : Angle=      179.7482   / Degree    3.137197 / rad

 *******************************************
 * Values of the constraints   / au or rad *
 *******************************************
   Label        C         C0
 Cns001      2.267671  2.267671
 Cns002      4.535343  4.535343
 Cns003      3.137197  3.141593

  28  -289.87057997  -289.87043329     0.00014669  0.02573187  0.03222726  0.00426860  0.10024111  0.14130954  0.00247911    108.31

 Constraints section
ConstraintsConstraintsConstraintsConstraintsConstraintsConstraintsConstraintsConstraintsConstraintsConstraints
ConstraintsConstraintsConstraintsConstraintsConstraintsConstraintsConstraintsConstraintsConstraintsConstraints
Constraints                                                                                        Constraints
Constraints                                 C O N S T R A I N T S                                  Constraints
Constraints                                                                                        Constraints

************************************************************************************************************************
BO0001 = BOND       H7    C1
BO0002 = BOND       H7    C17
AN0001 = ANGLE      C1    H7    C17
VALUES
BO0001 =      1.20000000 ANGSTROM
BO0002 =      2.40000000 ANGSTROM
AN0001 =    180.00000000 DEGREE
************************************************************************************************************************


 *************************************************************
 * Values of the primitive constraints                       *
 *************************************************************
 BO0001   : Bond Length=  1.200000 / Angstrom  2.267671 / bohr
 BO0002   : Bond Length=  2.400000 / Angstrom  4.535343 / bohr
  Valence angle close to end in range of definition
 AN0001   : Angle=      179.9753   / Degree    3.141162 / rad

 *******************************************
 * Values of the constraints   / au or rad *
 *******************************************
   Label        C         C0
 Cns001      2.267671  2.267671
 Cns002      4.535343  4.535343
 Cns003      3.141162  3.141593

  29  -289.87043329  -289.87057367    -0.00014038  0.02540540  0.03221098  0.00426645  0.08010024  0.10994027  0.00192878    112.15

 Constraints section
ConstraintsConstraintsConstraintsConstraintsConstraintsConstraintsConstraintsConstraintsConstraintsConstraints
ConstraintsConstraintsConstraintsConstraintsConstraintsConstraintsConstraintsConstraintsConstraintsConstraints
Constraints                                                                                        Constraints
Constraints                                 C O N S T R A I N T S                                  Constraints
Constraints                                                                                        Constraints

************************************************************************************************************************
BO0001 = BOND       H7    C1
BO0002 = BOND       H7    C17
AN0001 = ANGLE      C1    H7    C17
VALUES
BO0001 =      1.20000000 ANGSTROM
BO0002 =      2.40000000 ANGSTROM
AN0001 =    180.00000000 DEGREE
************************************************************************************************************************


 *************************************************************
 * Values of the primitive constraints                       *
 *************************************************************
 BO0001   : Bond Length=  1.200000 / Angstrom  2.267671 / bohr
 BO0002   : Bond Length=  2.400000 / Angstrom  4.535343 / bohr
  Valence angle close to end in range of definition
 AN0001   : Angle=      179.6312   / Degree    3.135156 / rad

 *******************************************
 * Values of the constraints   / au or rad *
 *******************************************
   Label        C         C0
 Cns001      2.267671  2.267671
 Cns002      4.535343  4.535343
 Cns003      3.135156  3.141593

  30  -289.87057367  -289.87052971     0.00004396  0.02533017  0.03208659  0.00424997  0.02809522  0.06040130  0.00105967    115.64

 Constraints section
ConstraintsConstraintsConstraintsConstraintsConstraintsConstraintsConstraintsConstraintsConstraintsConstraints
ConstraintsConstraintsConstraintsConstraintsConstraintsConstraintsConstraintsConstraintsConstraintsConstraints
Constraints                                                                                        Constraints
Constraints                                 C O N S T R A I N T S                                  Constraints
Constraints                                                                                        Constraints

************************************************************************************************************************
BO0001 = BOND       H7    C1
BO0002 = BOND       H7    C17
AN0001 = ANGLE      C1    H7    C17
VALUES
BO0001 =      1.20000000 ANGSTROM
BO0002 =      2.40000000 ANGSTROM
AN0001 =    180.00000000 DEGREE
************************************************************************************************************************


 *************************************************************
 * Values of the primitive constraints                       *
 *************************************************************
 BO0001   : Bond Length=  1.200000 / Angstrom  2.267671 / bohr
 BO0002   : Bond Length=  2.400000 / Angstrom  4.535343 / bohr
  Valence angle close to end in range of definition
 AN0001   : Angle=      179.7997   / Degree    3.138098 / rad

 *******************************************
 * Values of the constraints   / au or rad *
 *******************************************
   Label        C         C0
 Cns001      2.267671  2.267671
 Cns002      4.535343  4.535343
 Cns003      3.138098  3.141593

  31  -289.87052971  -289.87059264    -0.00006294  0.02547553  0.03211606  0.00425388  0.05845722  0.12944255  0.00227092    118.93

 Constraints section
ConstraintsConstraintsConstraintsConstraintsConstraintsConstraintsConstraintsConstraintsConstraintsConstraints
ConstraintsConstraintsConstraintsConstraintsConstraintsConstraintsConstraintsConstraintsConstraintsConstraints
Constraints                                                                                        Constraints
[...]

 Final alpha occupancy:  28
 Final beta  occupancy:  27

 !UKS STATE  1.1 Energy              -290.218886964659
 Nuclear energy                       272.77341530
 One-electron energy                 -929.84699477
 Two-electron energy                  399.81090079
 Density functional                   -32.95620828     PBEX=-41.60740797 PBEC= -1.75065230
 Virial quotient                       -1.00603183
 !UKS STATE  1.1 Dipole moment         -0.11002928    -0.05513093     1.33638080
 Dipole moment /Debye                  -0.27964822    -0.14011966     3.39651872

 Orbital energies for positive spin:

         1.1          2.1          3.1          4.1          5.1          6.1          7.1          8.1          9.1         10.1
    -14.424182   -10.318149   -10.257374   -10.231351   -10.223549   -10.223517   -10.219718    -0.960933    -0.853845    -0.769269

        11.1         12.1         13.1         14.1         15.1         16.1         17.1         18.1         19.1         20.1
     -0.718202    -0.656349    -0.582317    -0.504469    -0.489938    -0.474836    -0.457994    -0.437478    -0.409273    -0.404500

        21.1         22.1         23.1         24.1         25.1         26.1         27.1         28.1         29.1         30.1
     -0.399688    -0.384986    -0.381772    -0.381704    -0.371657    -0.350139    -0.346029    -0.330299     0.004143     0.005880

 Orbital energies for negative spin:

         1.1          2.1          3.1          4.1          5.1          6.1          7.1          8.1          9.1         10.1
    -14.421298   -10.301301   -10.255815   -10.231264   -10.223516   -10.223493   -10.219679    -0.941098    -0.851353    -0.768605

        11.1         12.1         13.1         14.1         15.1         16.1         17.1         18.1         19.1         20.1
     -0.717674    -0.655492    -0.576890    -0.494031    -0.474308    -0.456801    -0.436754    -0.431229    -0.407968    -0.404084

        21.1         22.1         23.1         24.1         25.1         26.1         27.1         28.1         29.1         30.1
     -0.384474    -0.374461    -0.374239    -0.370242    -0.349569    -0.345619    -0.332731    -0.220224     0.023387     0.026505


 HOMO     28.1    -0.330299 =      -8.9879eV
 LUMO    -28.1    -0.220224 =      -5.9926eV
 LUMO-HOMO         0.110075 =       2.9953eV

 EXPECTATION VALUE OF S**2:             0.76329658

 Occupation number threshold for pseudo-canonical orbitals: 1.9990 (occupied), 0.0010 (virtual)

 Number of pseudo-canonical occupied orbitals per symmetry:   24
 Number of active natural orbitals per symmetry:               7

 Natural orbitals saved to record    2204.2 (Orbital set 3)

 Orbital spaces for UNO-CAS (Min. occupation: 0.020  Max. occupation: 1.980):

 Closed:       27
 Active:        1


 **********************************************************************************************************************************
 DATASETS  * FILE   NREC   LENGTH (MB)   RECORD NAMES
              1      19       33.38       500      610      700      900      950      970     1001      129      960     1100   
                                          VAR    BASINP    GEOM    SYMINP    ZMAT    AOBASIS   BASIS     P2S    ABASIS      S 
                                         1400     1410     1200     1210     1080     1600     1650     1700     1800   
                                           T        V       H0       H01     AOSYM     SMH    MOLCAS    OPER     GRID   

              2      13       28.34       700     1000      520     2100     1800     2200      520(1)  2201      520(2)  2202   
                                         GEOM     BASIS   MCVARS     RHF     GRID      UKS    MCVARS     UKS    MCVARS     UKS  
                                         1001     2203     2204   
                                         BASIS     UKS      UKS  

 PROGRAMS   *        TOTAL    DF-UKS    DF-UKS       INT    DF-UKS      OPTG    DF-UKS      OPTG    DF-UKS     DF-HF       INT
 CPU TIMES  *      1023.76    122.51      4.18      0.21      2.29    667.60     28.33    192.37      2.92      2.86      0.32
 REAL TIME  *      1037.67 SEC
 DISK USED  *        61.81 MB (local),      247.25 MB (total)
 SF USED    *        35.37 MB
 GA USED    *         3.27 MB       (max)       2.01 MB       (current)
 **********************************************************************************************************************************

 Density functional group PBE0=PBEX+PBEC
 Functional: PBEX(Automatically generated (new) PBEX)                          Gradient terms: 1
 Functional: PBEC(Automatically generated (new) PBEC)                          Gradient terms: 1
 Use libxcgrid:  F
 Use grid at  1800.2


 Exact exchange will be calculated, factor:  0.2500

 Functional: PBEX                      Factor:  0.7500
 Functional: PBEC                      Factor:  1.0000

  234265 words reserved for DFT integration

 PROGRAM * UKS-SCF (Unrestricted Kohn-Sham)     Authors: W. Meyer, H.-J. Werner, P.J. Knowles, 1993

 NUMBER OF ELECTRONS:      28+   27-    SPACE SYMMETRY=1    SPIN SYMMETRY: Doublet 
 CONVERGENCE THRESHOLDS:    1.00E-06 (Density)    1.00E-06 (Energy)
 INTEGRAL THRESHOLDS:       1.00E-11 (Initial)    1.00E-11 (Final)
 MAX. NUMBER OF ITERATIONS:       60
 INTERPOLATION TYPE:            DIIS
 INTERPOLATION STEPS:              2 (START)      1 (STEP)
 LEVEL SHIFTS:                 -0.20 (ALPHA)  -0.20 (BETA) 



 Use fine grid record 1800.2 for energy threshold  1.0D-06
 Molecular orbitals read from record     2204.2  Type=UKS/ALPHA (state 1.1)
 Molecular orbitals read from record     2204.2  Type=UKS/BETA (state 1.1)

 Molecular orbital dump at record        2205.2

 Initial alpha occupation  28
 Initial beta  occupation  27

 Direct Fock-matrix evaluation.        Author: H.-J. Werner (1996)

 Integral Threshold:                  0.1D-10

 ITERATION   DDIFF            GRAD            ENERGY        2-EL.EN.            DIPOLE MOMENTS         DIIS   CPU(IT)  CPU(TOT)
    1      0.000D+00      0.000D+00      -290.21863158    799.622312   -0.11003   -0.05513    1.33638    0     10.4     10.4
    2      0.339D-04      0.754D-05      -290.21863295    799.618864   -0.11007   -0.05511    1.33640    1      9.2     19.7
    3      0.107D-04      0.130D-05      -290.21863302    799.619925   -0.11010   -0.05510    1.33630    2      9.0     28.7
    4      0.366D-05      0.235D-06      -290.21863303    799.619767   -0.11014   -0.05508    1.33635    3      8.5     37.2
    5      0.725D-06      0.144D-06      -290.21863303    799.619924   -0.11014   -0.05508    1.33619    4      8.1     45.3
    6      0.413D-06      0.988D-07      -290.21863303    799.620040   -0.11016   -0.05507    1.33623    5      7.9     53.3

 Final alpha occupancy:  28
 Final beta  occupancy:  27

 !UKS STATE  1.1 Energy              -290.218633029175
 Nuclear energy                       272.77341530
 One-electron energy                 -929.84612612
 Two-electron energy                  399.81001980
 Density functional                   -32.95594201     PBEX=-41.60699124 PBEC= -1.75069858
 Virial quotient                       -1.00604328
 !UKS STATE  1.1 Dipole moment         -0.11015640    -0.05507190     1.33622817
 Dipole moment /Debye                  -0.27997131    -0.13996963     3.39613079

 Orbital energies for positive spin:

         1.1          2.1          3.1          4.1          5.1          6.1          7.1          8.1          9.1         10.1
    -14.424225   -10.318176   -10.257401   -10.231373   -10.223598   -10.223565   -10.219767    -0.960931    -0.853848    -0.769274

        11.1         12.1         13.1         14.1         15.1         16.1         17.1         18.1         19.1         20.1
     -0.718209    -0.656350    -0.582314    -0.504469    -0.489944    -0.474842    -0.458004    -0.437480    -0.409272    -0.404504

        21.1         22.1         23.1         24.1         25.1         26.1         27.1         28.1         29.1         30.1
     -0.399695    -0.384988    -0.381776    -0.381707    -0.371655    -0.350143    -0.346028    -0.330303     0.004130     0.005856

 Orbital energies for negative spin:

         1.1          2.1          3.1          4.1          5.1          6.1          7.1          8.1          9.1         10.1
    -14.421341   -10.301327   -10.255842   -10.231286   -10.223564   -10.223541   -10.219729    -0.941095    -0.851356    -0.768611

        11.1         12.1         13.1         14.1         15.1         16.1         17.1         18.1         19.1         20.1
     -0.717681    -0.655493    -0.576888    -0.494036    -0.474314    -0.456811    -0.436755    -0.431234    -0.407969    -0.404087

        21.1         22.1         23.1         24.1         25.1         26.1         27.1         28.1         29.1         30.1
     -0.384477    -0.374465    -0.374243    -0.370241    -0.349573    -0.345620    -0.332728    -0.220234     0.023371     0.026476


 HOMO     28.1    -0.330303 =      -8.9880eV
 LUMO    -28.1    -0.220234 =      -5.9929eV
 LUMO-HOMO         0.110070 =       2.9951eV

 EXPECTATION VALUE OF S**2:             0.76329369

 Occupation number threshold for pseudo-canonical orbitals: 1.9990 (occupied), 0.0010 (virtual)

 Number of pseudo-canonical occupied orbitals per symmetry:   24
 Number of active natural orbitals per symmetry:               7

 Natural orbitals saved to record    2205.2 (Orbital set 3)

 Orbital spaces for UNO-CAS (Min. occupation: 0.020  Max. occupation: 1.980):

 Closed:       27
 Active:        1


 **********************************************************************************************************************************
 DATASETS  * FILE   NREC   LENGTH (MB)   RECORD NAMES
              1      19       33.38       500      610      700      900      950      970     1001      129      960     1100   
                                          VAR    BASINP    GEOM    SYMINP    ZMAT    AOBASIS   BASIS     P2S    ABASIS      S 
                                         1400     1410     1200     1210     1080     1600     1650     1700     1800   
                                           T        V       H0       H01     AOSYM     SMH    MOLCAS    OPER     GRID   

              2      14       34.20       700     1000      520     2100     1800     2200      520(1)  2201      520(2)  2202   
                                         GEOM     BASIS   MCVARS     RHF     GRID      UKS    MCVARS     UKS    MCVARS     UKS  
                                         1001     2203     2204     2205   
                                         BASIS     UKS      UKS      UKS  

 PROGRAMS   *        TOTAL   UKS-SCF    DF-UKS    DF-UKS       INT    DF-UKS      OPTG    DF-UKS      OPTG    DF-UKS     DF-HF
 CPU TIMES  *      1077.09     53.32    122.51      4.18      0.21      2.29    667.60     28.33    192.37      2.92      2.86
 REAL TIME  *      1091.10 SEC
 DISK USED  *        67.67 MB (local),      270.67 MB (total)
 SF USED    *        35.37 MB
 GA USED    *         3.27 MB       (max)       2.01 MB       (current)
 **********************************************************************************************************************************

 Density functional group B3LYP=B88+DIRAC+LYP+VWN5
 Functional: B88(Automatically generated (new) B88)                            Gradient terms: 1
 Functional: DIRAC(Automatically generated (new) DIRAC)                        Gradient terms: 0
 Functional: LYP(Automatically generated (new) LYP)                            Gradient terms: 1
 Functional: VWN5(Automatically generated (new) VWN5)                          Gradient terms: 0
 Use libxcgrid:  F
 Use grid at  1800.2


 Exact exchange will be calculated, factor:  0.2000

 Functional: B88                       Factor:  0.7200
 Functional: DIRAC                     Factor:  0.0800
 Functional: LYP                       Factor:  0.8100
 Functional: VWN5                      Factor:  0.1900

  234265 words reserved for DFT integration

 PROGRAM * UKS-SCF (Unrestricted Kohn-Sham)     Authors: W. Meyer, H.-J. Werner, P.J. Knowles, 1993

 NUMBER OF ELECTRONS:      28+   27-    SPACE SYMMETRY=1    SPIN SYMMETRY: Doublet 
 CONVERGENCE THRESHOLDS:    1.00E-06 (Density)    1.00E-06 (Energy)
 INTEGRAL THRESHOLDS:       1.00E-11 (Initial)    1.00E-11 (Final)
 MAX. NUMBER OF ITERATIONS:       60
 INTERPOLATION TYPE:            DIIS
 INTERPOLATION STEPS:              2 (START)      1 (STEP)
 LEVEL SHIFTS:                 -0.20 (ALPHA)  -0.20 (BETA) 



 Use fine grid record 1800.2 for energy threshold  1.0D-06
 Molecular orbitals read from record     2205.2  Type=UKS/ALPHA (state 1.1)
 Molecular orbitals read from record     2205.2  Type=UKS/BETA (state 1.1)

 Molecular orbital dump at record        2206.2

 Initial alpha occupation  28
 Initial beta  occupation  27

 Direct Fock-matrix evaluation.        Author: H.-J. Werner (1996)

 Integral Threshold:                  0.1D-10

 ITERATION   DDIFF            GRAD            ENERGY        2-EL.EN.            DIPOLE MOMENTS         DIIS   CPU(IT)  CPU(TOT)
    1      0.000D+00      0.000D+00      -290.39222302    803.794737   -0.11016   -0.05507    1.33623    0     10.5     10.5
    2      0.101D-02      0.390D-03      -290.39637390    804.133196   -0.11174   -0.05643    1.36401    1      9.5     20.0
    3      0.163D-03      0.632D-04      -290.39660194    803.814889   -0.11065   -0.05834    1.36526    2      9.3     29.3
    4      0.857D-04      0.298D-04      -290.39666445    803.842376   -0.11385   -0.05921    1.40617    3      9.1     38.4
    5      0.430D-04      0.202D-04      -290.39669321    803.853220   -0.11222   -0.06052    1.40808    4      8.9     47.3
    6      0.315D-04      0.136D-04      -290.39671431    803.820275   -0.11334   -0.06144    1.42895    5      8.9     56.2
    7      0.332D-04      0.584D-05      -290.39672998    803.828930   -0.11405   -0.06308    1.44801    6      8.9     65.1
    8      0.168D-04      0.323D-05      -290.39673415    803.819823   -0.11414   -0.06390    1.45844    7      9.0     74.1
    9      0.806D-05      0.195D-05      -290.39673502    803.820938   -0.11419   -0.06425    1.46144    8      8.8     82.9
   10      0.250D-05      0.911D-06      -290.39673523    803.821535   -0.11414   -0.06431    1.46062    9      8.5     91.4
   11      0.231D-05      0.523D-06      -290.39673534    803.821750   -0.11395   -0.06430    1.45897    9      8.4     99.8
   12      0.141D-05      0.246D-06      -290.39673537    803.821888   -0.11386   -0.06428    1.45803    9      8.4    108.2
   13      0.430D-06      0.967D-07      -290.39673537    803.821876   -0.11382   -0.06431    1.45782    9      8.0    116.2
   14      0.196D-06      0.667D-07      -290.39673537    803.821966   -0.11381   -0.06431    1.45773    9      7.8    124.0

 Final alpha occupancy:  28
 Final beta  occupancy:  27

 !UKS STATE  1.1 Energy              -290.396735373729
 Nuclear energy                       272.77341530
 One-electron energy                 -929.84117401
 Two-electron energy                  401.91098305
 Density functional                   -35.23995971     B88=-41.87455119 DIRAC=-37.63150041 LYP= -1.76100743 VWN5= -3.43866736
 Virial quotient                       -1.00560722
 !UKS STATE  1.1 Dipole moment         -0.11380809    -0.06430870     1.45773012
 Dipole moment /Debye                  -0.28925237    -0.16344570     3.70493773

 Orbital energies for positive spin:

         1.1          2.1          3.1          4.1          5.1          6.1          7.1          8.1          9.1         10.1
    -14.352102   -10.257483   -10.204909   -10.180143   -10.173457   -10.173308   -10.168766    -0.930304    -0.830527    -0.747730

        11.1         12.1         13.1         14.1         15.1         16.1         17.1         18.1         19.1         20.1
     -0.698639    -0.638186    -0.567104    -0.486823    -0.469669    -0.461940    -0.445696    -0.425880    -0.399251    -0.394165

        21.1         22.1         23.1         24.1         25.1         26.1         27.1         28.1         29.1         30.1
     -0.381628    -0.375190    -0.364534    -0.364081    -0.362124    -0.341226    -0.337676    -0.322749     0.000690     0.002374

 Orbital energies for negative spin:

         1.1          2.1          3.1          4.1          5.1          6.1          7.1          8.1          9.1         10.1
    -14.348618   -10.242825   -10.203342   -10.180024   -10.173405   -10.173265   -10.168725    -0.911146    -0.827892    -0.746993

        11.1         12.1         13.1         14.1         15.1         16.1         17.1         18.1         19.1         20.1
     -0.698013    -0.637223    -0.561435    -0.480882    -0.461418    -0.444441    -0.425032    -0.415182    -0.397757    -0.393748

        21.1         22.1         23.1         24.1         25.1         26.1         27.1         28.1         29.1         30.1
     -0.374721    -0.361298    -0.356500    -0.356356    -0.340626    -0.337233    -0.325581    -0.229704     0.016291     0.019240


 HOMO     28.1    -0.322749 =      -8.7824eV
 LUMO    -28.1    -0.229704 =      -6.2506eV
 LUMO-HOMO         0.093045 =       2.5319eV

 EXPECTATION VALUE OF S**2:             0.75927828

 Occupation number threshold for pseudo-canonical orbitals: 1.9990 (occupied), 0.0010 (virtual)

 Number of pseudo-canonical occupied orbitals per symmetry:   24
 Number of active natural orbitals per symmetry:               7

 Natural orbitals saved to record    2206.2 (Orbital set 3)

 Orbital spaces for UNO-CAS (Min. occupation: 0.020  Max. occupation: 1.980):

 Closed:       27
 Active:        1


 **********************************************************************************************************************************
 DATASETS  * FILE   NREC   LENGTH (MB)   RECORD NAMES
              1      19       33.38       500      610      700      900      950      970     1001      129      960     1100   
                                          VAR    BASINP    GEOM    SYMINP    ZMAT    AOBASIS   BASIS     P2S    ABASIS      S 
                                         1400     1410     1200     1210     1080     1600     1650     1700     1800   
                                           T        V       H0       H01     AOSYM     SMH    MOLCAS    OPER     GRID   

              2      15       40.05       700     1000      520     2100     1800     2200      520(1)  2201      520(2)  2202   
                                         GEOM     BASIS   MCVARS     RHF     GRID      UKS    MCVARS     UKS    MCVARS     UKS  
                                         1001     2203     2204     2205     2206   
                                         BASIS     UKS      UKS      UKS      UKS  

 PROGRAMS   *        TOTAL   UKS-SCF   UKS-SCF    DF-UKS    DF-UKS       INT    DF-UKS      OPTG    DF-UKS      OPTG    DF-UKS
 CPU TIMES  *      1201.22    124.11     53.32    122.51      4.18      0.21      2.29    667.60     28.33    192.37      2.92
 REAL TIME  *      1215.35 SEC
 DISK USED  *        73.52 MB (local),      294.09 MB (total)
 SF USED    *        35.37 MB
 GA USED    *         3.27 MB       (max)       2.01 MB       (current)
 **********************************************************************************************************************************

 UB3LYP/TZVP//CF-UKS/SVP energy=   -290.396735373729

         UKS-SCF         UKS-SCF          DF-UKS          DF-UKS          DF-UKS    OPTG(DF-UKS)          DF-UKS    OPTG(DF-UKS)
   -290.39673537   -290.21863303   -290.21888696   -290.19093628   -289.86934969   -289.90445830   -289.90328359   -289.87056342
 **********************************************************************************************************************************
 Molpro calculation terminated with 2 warning(s)
