
 Primary working directories    : /mnt/storage/home/lb17101/scratch/1379451/molpro.moCxhmIAEo
 Secondary working directories  : /mnt/storage/home/lb17101/scratch/1379451/molpro.moCxhmIAEo
 Wavefunction directory         : /mnt/storage/home/lb17101/optimizations/7/
 Main file repository           : /mnt/storage/home/lb17101/optimizations/7/

 id        : simonbennie

 Nodes                   nprocs
 compute073.bc4.acrc.priv    4

 Using customized tuning parameters: mindgm=1; mindgv=20; mindgc=4; mindgr=1; noblas=0; minvec=7
 default implementation of scratch files=sf  


 Variables initialized (924), CPU time= 0.01 sec
 memory,536,m
 
 geomtyp=xyz
 
 nosym
 noorient
 gdirect
 angstrom
 
 geometry=input.xyz
 Including file /mnt/storage/home/lb17101/optimizations/7/input.xyz
 
 set,charge=0
 
 basis=svp
 df-hf
 {cf-uks,pbe;}
 {optg,method=slrf,maxiter=50;
 constraint,1.800,angstrom,bond,atoms=[H7,C1]
 constraint,0.900,angstrom,bond,atoms=[H7,C17]
 constraint,180,deg,angle,atoms=[C1,H7,C17]
 {slopt;}}
 {cf-uks,pbe0;}
 {optg,method=slrf,maxiter=20;
 constraint,1.800,angstrom,bond,atoms=[H7,C1]
 constraint,0.900,angstrom,bond,atoms=[H7,C17]
 constraint,180,deg,angle,atoms=[C1,H7,C17]
 {slopt;}}
 {cf-uks,pbe;}
 basis=tzvp
 {cf-uks,pbe;}
 {cf-uks,pbe0;}
 {uks,pbe0;}
 {uks,b3lyp;}
 Commands  initialized (760), CPU time= 0.01 sec, 616 directives.
 Default parameters read. Elapsed time= 0.05 sec

 Checking input...
 Passed
1


                                         ***  PROGRAM SYSTEM MOLPRO  ***
                                       Copyright, TTI GmbH Stuttgart, 2015
                                    Version 2018.1 linked Oct 16 2018 14:32:03


 **********************************************************************************************************************************
 LABEL *                                                                                 
  64 bit mpp version                                                                     DATE: 10-Nov-18          TIME: 02:17:27  
 **********************************************************************************************************************************

 SHA1:             d673ad554fd0a1ae99daa449513f8b88cca0f763
 **********************************************************************************************************************************
 SETTING GEOMTYP        =    XYZ

 Variable memory set to  536000000 words,  buffer space 

 ZSYMEL=NOSYM
 ZUNIT=ANG

 SETTING CHARGE         =     0.00000000D+00                                  
 SETTING BASIS          =    SVP


 Recomputing integrals since basis changed


 Using spherical harmonics

 Library entry C      S def2-SVP             selected for orbital group  1
 Library entry C      P def2-SVP             selected for orbital group  1
 Library entry C      D def2-SVP             selected for orbital group  1
 Library entry H      S def2-SVP             selected for orbital group  2
 Library entry H      P def2-SVP             selected for orbital group  2
 Library entry N      S def2-SVP             selected for orbital group  8
 Library entry N      P def2-SVP             selected for orbital group  8
 Library entry N      D def2-SVP             selected for orbital group  8


 PROGRAM * SEWARD (Integral evaluation for generally contracted gaussian basis sets)     Author: Roland Lindh, 1990

 Geometry written to block  1 of record 700


 Point group  C1  



 ATOMIC COORDINATES

 NR  ATOM    CHARGE       X              Y              Z

   1  C0      6.00  -15.316925113    4.888078256   -0.767052243
   2  C1      6.00  -12.509659000    4.644678157   -1.070390898
   3  H2      1.00  -16.346413757    3.266393148   -1.611352563
   4  H3      1.00  -16.060070410    6.659028964   -1.611398073
   5  H4      1.00  -15.867278179    4.939078915    1.276322047
   6  C5      6.00  -10.928940534    6.951542313   -0.623723353
   7  C6      6.00  -11.391119286    2.048705088   -0.721610816
   8  H7      1.00  -12.064532823    4.811752729   -5.409853371
   9  H8      1.00  -11.858594393    8.684827474   -1.350707090
  10  H9      1.00   -9.024283094    6.819447243   -1.489688335
  11  H10     1.00  -10.607924720    7.281743571    1.443810111
  12  H11     1.00  -12.564834386    0.660594741   -1.783784990
  13  H12     1.00  -11.651586181    1.480313562    1.306983776
  14  C13     6.00   -8.601100060    1.708416740   -1.418172702
  15  H14     1.00   -8.227734962    2.222762924   -3.417429662
  16  H15     1.00   -8.014177585   -0.286184374   -1.167620133
  17  H16     1.00   -7.341877758    2.878713852   -0.220497868
  18  C17     6.00  -11.862435348    4.823883071   -7.478668950
  19  N18     7.00  -11.637187328    4.827537747   -9.674272220

 Bond lengths in Bohr (Angstrom)

 1-2  2.834078506  1-3  2.098226034  1-4  2.097963589  1-5  2.116806098  2-6  2.831926023
     ( 1.499729759)     ( 1.110333401)     ( 1.110194521)     ( 1.120165547)     ( 1.498590715)

  2- 7  2.848131811   6- 9  2.096911801   6-10  2.096440894   6-11  2.118201749   7-12  2.105391044
       ( 1.507166448)       ( 1.109637938)       ( 1.109388745)       ( 1.120904093)       ( 1.114124961)

  7-13  2.122759513   7-14  2.895721310   8-18  2.078698735  14-15  2.097851731  14-16  2.094203473
       ( 1.123315958)       ( 1.532349726)       ( 1.099999999)       ( 1.110135328)       ( 1.108204753)

 14-17  2.095151819  18-19  2.207130206
       ( 1.108706596)       ( 1.167963007)

 Bond angles

  1-2-6  117.77855146   1-2-7  117.01248036   2-1-3  112.12069309   2-1-4  112.35172672

  2- 1- 5  111.27971143   2- 6- 9  111.78876771   2- 6-10  112.99419310   2- 6-11  111.44020680

  2- 7-12  108.67630802   2- 7-13  108.23366762   2- 7-14  117.13216098   3- 1- 4  108.46167851

  3- 1- 5  106.22951316   4- 1- 5  106.02553003   6- 2- 7  120.26137390   7-14-15  111.83345378

  7-14-16  110.68168460   7-14-17  112.08183597   8-18-19  179.63297686   9- 6-10  108.15949919

  9- 6-11  106.06536737  10- 6-11  105.98101855  12- 7-13  103.72019587  12- 7-14  109.77304899

 13- 7-14  108.45956817  15-14-16  107.31683745  15-14-17  107.50922167  16-14-17  107.16800153

 NUCLEAR CHARGE:                   55
 NUMBER OF PRIMITIVE AOS:         259
 NUMBER OF SYMMETRY AOS:          252
 NUMBER OF CONTRACTIONS:          158   (  158A   )
 NUMBER OF CORE ORBITALS:           7   (    7A   )
 NUMBER OF VALENCE ORBITALS:       40   (   40A   )


 NUCLEAR REPULSION ENERGY  275.70817015


 Eigenvalues of metric

         1 0.193E-02 0.310E-02 0.390E-02 0.405E-02 0.652E-02 0.110E-01 0.215E-01 0.232E-01


 OPERATOR DM      FOR CENTER  0  COORDINATES:    0.000000    0.000000    0.000000


 **********************************************************************************************************************************
 DATASETS  * FILE   NREC   LENGTH (MB)   RECORD NAMES
              1      18       31.21       500      610      700      900      950      970     1000      129      960     1100   
                                          VAR    BASINP    GEOM    SYMINP    ZMAT    AOBASIS   BASIS     P2S    ABASIS      S 
                                         1400     1410     1200     1210     1080     1600     1650     1700   
                                           T        V       H0       H01     AOSYM     SMH    MOLCAS    OPER   

 PROGRAMS   *        TOTAL       INT
 CPU TIMES  *         0.44      0.31
 REAL TIME  *         0.78 SEC
 DISK USED  *        31.83 MB (local),      127.32 MB (total)
 GA USED    *         0.00 MB       (max)       0.00 MB       (current)
 **********************************************************************************************************************************


 PROGRAM * RHF-SCF (OPEN SHELL)       Authors: W. Meyer, H.-J. Werner


 NUMBER OF ELECTRONS:      28+   27-    SPACE SYMMETRY=1    SPIN SYMMETRY: Doublet 
 CONVERGENCE THRESHOLDS:    1.00E-06 (Density)    1.00E-07 (Energy)
 INTEGRAL THRESHOLDS:       1.00E-11 (Initial)    1.00E-11 (Final)
 MAX. NUMBER OF ITERATIONS:       60
 INTERPOLATION TYPE:            DIIS
 INTERPOLATION STEPS:              2 (START)      1 (STEP)
 LEVEL SHIFTS:                 -0.60 (CLOSED) -0.30 (OPEN) 




 Basis set DEF2-SVP/JKFIT generated.     Number of basis functions:   560 

 Orbital guess generated from atomic densities. Full valence occupancy:   28
 Using density fitting in orbital guess

 Coulomb and exchange fitting
 Thresholds for fitting:       THRAO_COUL= 1.0D-14    THRAO_EXCH= 1.0D-12    THRMO= 1.0D-11    THRPROD= 1.0D-11    THRASM= 1.0D-11
                               THR2HLF=    1.0D-11

 Molecular orbital dump at record        2100.2

 Initial alpha occupancy:  28
 Initial beta  occupancy:  27
 Wave function symmetry:    1

 ITERATION   DDIFF            GRAD            ENERGY        2-EL.EN.            DIPOLE MOMENTS         DIIS   CPU(IT)  CPU(TOT)  ORB.
    1      0.000D+00      0.000D+00      -288.25653108    743.427118   -0.20611   -0.03282    2.24955    0      0.2      0.5     start
    2      0.000D+00      0.404D-02      -288.33743391    740.463678   -0.12968   -0.03912    1.76432    1      0.2      0.7     diag,B
    3      0.326D-02      0.159D-02      -288.35408585    740.537927   -0.13062   -0.04387    1.76760    2      0.2      0.9     diag,B
    4      0.172D-02      0.766D-03      -288.36085477    740.506910   -0.11869   -0.04677    1.67918    3      0.2      1.1     diag,B
    5      0.163D-02      0.217D-03      -288.36155294    740.466718   -0.11622   -0.04505    1.65893    4      0.2      1.3     diag,B
    6      0.673D-03      0.760D-04      -288.36165427    740.440907   -0.11505   -0.04372    1.64661    5      0.5      1.8     diag,B
    7      0.303D-03      0.227D-04      -288.36166362    740.433141   -0.11464   -0.04323    1.64196    6      0.2      1.9     fixocc
    8      0.786D-04      0.773D-05      -288.36166489    740.432495   -0.11448   -0.04309    1.64001    7      0.2      2.1     diag,B
    9      0.316D-04      0.272D-05      -288.36166507    740.432757   -0.11445   -0.04307    1.63943    8      0.2      2.3     diag,B
   10      0.174D-04      0.804D-06      -288.36166509    740.432894   -0.11445   -0.04308    1.63939    9      0.2      2.5     orth
   11      0.584D-05      0.243D-06      -288.36166509    740.432896   -0.11445   -0.04308    1.63942    9      0.2      2.7     diag,B
   12      0.155D-05      0.737D-07      -288.36166509    740.432889   -0.11445   -0.04308    1.63944    9      0.2      2.9     diag,B
   13      0.311D-06      0.320D-07      -288.36166509    740.432885   -0.11445   -0.04308    1.63944    0      0.2      3.1     orth

 Final alpha occupancy:  28
 Final beta  occupancy:  27

 !RHF STATE  1.1 Energy              -288.361665089849
 Nuclear energy                       275.70817015
 One-electron energy                 -934.28627784
 Two-electron energy                  370.21644260
 Virial quotient                       -1.00680784
 !RHF STATE  1.1 Dipole moment         -0.11445169    -0.04308226     1.63943652
 Dipole moment /Debye                  -0.29088811    -0.10949701     4.16675908

 Orbital energies:

         1.1          2.1          3.1          4.1          5.1          6.1          7.1          8.1          9.1         10.1
    -15.592641   -11.291335   -11.246750   -11.244969   -11.243934   -11.242577   -11.239168    -1.205717    -1.088407    -0.997104

        11.1         12.1         13.1         14.1         15.1         16.1         17.1         18.1         19.1         20.1
     -0.940315    -0.861368    -0.781930    -0.724005    -0.631077    -0.624398    -0.598168    -0.575224    -0.565807    -0.547432

        21.1         22.1         23.1         24.1         25.1         26.1         27.1         28.1         29.1         30.1
     -0.545110    -0.525552    -0.501852    -0.488453    -0.484725    -0.481223    -0.480751    -0.353407     0.152478     0.161665


 HOMO     28.1    -0.353407 =      -9.6167eV
 LUMO     29.1     0.152478 =       4.1492eV
 LUMO-HOMO         0.505885 =      13.7658eV


 **********************************************************************************************************************************
 DATASETS  * FILE   NREC   LENGTH (MB)   RECORD NAMES
              1      18       31.21       500      610      700      900      950      970     1000      129      960     1100   
                                          VAR    BASINP    GEOM    SYMINP    ZMAT    AOBASIS   BASIS     P2S    ABASIS      S 
                                         1400     1410     1200     1210     1080     1600     1650     1700   
                                           T        V       H0       H01     AOSYM     SMH    MOLCAS    OPER   

              2       4        3.88       700     1000      520     2100   
                                         GEOM     BASIS   MCVARS     RHF  

 PROGRAMS   *        TOTAL     DF-HF       INT
 CPU TIMES  *         3.54      3.10      0.31
 REAL TIME  *         4.38 SEC
 DISK USED  *        38.78 MB (local),      155.11 MB (total)
 SF USED    *        33.08 MB
 GA USED    *         3.27 MB       (max)       0.00 MB       (current)
 **********************************************************************************************************************************

 Density functional group PBE=PBEX+PBEC
 Functional: PBEX(Automatically generated (new) PBEX)                          Gradient terms: 1
 Functional: PBEC(Automatically generated (new) PBEC)                          Gradient terms: 1
 Use libxcgrid:  F
 Use grid at  1800.2

 Functional: PBEX                      Factor:  1.0000
 Functional: PBEC                      Factor:  1.0000

 Generated new metagrid on record  1800.2 with target accuracy 1.0D-06 and 65784 points in CPU time    0.5
 Computed new grid on record 1800.1 in CPU time    0.6
  129907 words reserved for DFT integration

 PROGRAM * UKS-SCF (Unrestricted Kohn-Sham)     Authors: W. Meyer, H.-J. Werner, P.J. Knowles, 1993

 NUMBER OF ELECTRONS:      28+   27-    SPACE SYMMETRY=1    SPIN SYMMETRY: Doublet 
 CONVERGENCE THRESHOLDS:    1.00E-06 (Density)    1.00E-06 (Energy)
 INTEGRAL THRESHOLDS:       1.00E-11 (Initial)    1.00E-11 (Final)
 MAX. NUMBER OF ITERATIONS:       60
 INTERPOLATION TYPE:            DIIS
 INTERPOLATION STEPS:              2 (START)      1 (STEP)
 LEVEL SHIFTS:                 -0.20 (ALPHA)  -0.20 (BETA) 



 Use fine grid record 1800.2 for energy threshold  1.0D-06

 Basis set DEF2-SVP/JFIT generated.      Number of basis functions:   475 
 Coulomb fitting
 Screening thresholds:    THRAO_COUL= 1.0D-14    THRAO= 1.0D-12    THROV= 1.0D-12

 Reserved 1 MW to cache 100.0% of significant integrals (4 MW global). CPU: 0.1 sec

 Molecular orbitals read from record     2100.2  Type=RHF/CANONICAL (state 1.1)

 Molecular orbital dump at record        2200.2

 Initial alpha occupation  28
 Initial beta  occupation  27

 ITERATION    DDIFF          GRAD             ENERGY        2-EL.EN.            DIPOLE MOMENTS         DIIS  CPU(IT) CPU(TOT)
    1      0.000D+00      0.000D+00      -289.87050375    823.934242   -0.11445   -0.04308    1.63944    0      0.2      0.3
    2      0.429D-02      0.217D-02      -289.91259013    827.062708   -0.10690   -0.04937    1.55566    1      0.2      0.4
    3      0.153D-02      0.457D-03      -289.91660101    825.696081   -0.10381   -0.04674    1.54245    2      0.2      0.6
    4      0.834D-03      0.208D-03      -289.91769905    826.227713   -0.10385   -0.05030    1.51656    3      0.2      0.8
    5      0.337D-03      0.928D-04      -289.91786070    826.157874   -0.10686   -0.04941    1.56732    4      0.2      1.0
    6      0.190D-03      0.897D-04      -289.91797801    826.078895   -0.10312   -0.04981    1.53883    5      0.2      1.1
    7      0.959D-04      0.220D-04      -289.91799471    826.097063   -0.10419   -0.05056    1.54440    6      0.2      1.3
    8      0.371D-04      0.875D-05      -289.91799683    826.094263   -0.10355   -0.05059    1.54414    7      0.2      1.5
    9      0.129D-04      0.279D-05      -289.91799707    826.096370   -0.10363   -0.05055    1.54438    8      0.2      1.7
   10      0.593D-05      0.130D-05      -289.91799711    826.094738   -0.10360   -0.05061    1.54427    8      0.2      1.8
   11      0.233D-05      0.298D-06      -289.91799711    826.094855   -0.10360   -0.05062    1.54421    8      0.2      2.0
   12      0.668D-06      0.111D-06      -289.91799712    826.094924   -0.10361   -0.05061    1.54421    8      0.2      2.2
   13      0.420D-06      0.682D-07      -289.91799712    826.094860   -0.10360   -0.05061    1.54419    7      0.2      2.3

 Final alpha occupancy:  28
 Final beta  occupancy:  27

 !UKS STATE  1.1 Energy              -289.917997115511
 Nuclear energy                       275.70817015
 One-electron energy                 -935.39562354
 Two-electron energy                  413.04742977
 Density functional                   -43.27797350     PBEX=-41.51503390 PBEC= -1.76293960
 Virial quotient                       -1.01214346
 !UKS STATE  1.1 Dipole moment         -0.10360472    -0.05061141     1.54418668
 Dipole moment /Debye                  -0.26331970    -0.12863294     3.92467397

 Orbital energies for positive spin:

         1.1          2.1          3.1          4.1          5.1          6.1          7.1          8.1          9.1         10.1
    -14.001646    -9.936594    -9.924487    -9.912447    -9.907742    -9.906695    -9.901996    -0.811440    -0.743548    -0.670299

        11.1         12.1         13.1         14.1         15.1         16.1         17.1         18.1         19.1         20.1
     -0.629061    -0.571142    -0.522383    -0.480687    -0.418081    -0.416680    -0.394820    -0.376360    -0.351639    -0.348992

        21.1         22.1         23.1         24.1         25.1         26.1         27.1         28.1         29.1         30.1
     -0.332703    -0.317068    -0.310681    -0.308824    -0.308464    -0.305407    -0.303193    -0.161479    -0.017647    -0.014435

 Orbital energies for negative spin:

         1.1          2.1          3.1          4.1          5.1          6.1          7.1          8.1          9.1         10.1
    -14.001645    -9.935992    -9.913073    -9.912263    -9.908386    -9.907369    -9.901869    -0.811127    -0.731794    -0.667411

        11.1         12.1         13.1         14.1         15.1         16.1         17.1         18.1         19.1         20.1
     -0.626776    -0.568035    -0.519294    -0.469213    -0.413309    -0.409254    -0.389743    -0.370902    -0.347691    -0.347279

        21.1         22.1         23.1         24.1         25.1         26.1         27.1         28.1         29.1         30.1
     -0.331599    -0.313815    -0.310378    -0.308083    -0.308056    -0.302630    -0.299344    -0.096959    -0.016958    -0.013646


 HOMO     28.1    -0.161479 =      -4.3941eV
 LUMO    -28.1    -0.096959 =      -2.6384eV
 LUMO-HOMO         0.064520 =       1.7557eV

 EXPECTATION VALUE OF S**2:             0.75315631

 Occupation number threshold for pseudo-canonical orbitals: 1.9990 (occupied), 0.0010 (virtual)

 Number of pseudo-canonical occupied orbitals per symmetry:   27
 Number of active natural orbitals per symmetry:               1

 Natural orbitals saved to record    2200.2 (Orbital set 3)

 Orbital spaces for UNO-CAS (Min. occupation: 0.020  Max. occupation: 1.980):

 Closed:       27
 Active:        1


 **********************************************************************************************************************************
 DATASETS  * FILE   NREC   LENGTH (MB)   RECORD NAMES
              1      19       31.21       500      610      700      900      950      970     1000      129      960     1100   
                                          VAR    BASINP    GEOM    SYMINP    ZMAT    AOBASIS   BASIS     P2S    ABASIS      S 
                                         1400     1410     1200     1210     1080     1600     1650     1700     1800   
                                           T        V       H0       H01     AOSYM     SMH    MOLCAS    OPER     GRID   

              2       6        7.61       700     1000      520     2100     1800     2200   
                                         GEOM     BASIS   MCVARS     RHF     GRID      UKS  

 PROGRAMS   *        TOTAL    DF-UKS     DF-HF       INT
 CPU TIMES  *         6.52      2.98      3.10      0.31
 REAL TIME  *         7.47 SEC
 DISK USED  *        38.89 MB (local),      155.54 MB (total)
 SF USED    *        33.08 MB
 GA USED    *         3.27 MB       (max)       2.17 MB       (current)
 **********************************************************************************************************************************


 PROGRAM * OPT (Geometry optimization)     Authors: F. Eckert and H.-J. Werner


 BFGS update of hessian


********** USER DEFINED INT/FIX/CONSTRAINTS ****************

List of primitive internal coordinates

     N      Name     Type   Natoms   Atom list

     1    Bo0001     Bond        2      H7   C1  
     2    Bo0002     Bond        2      H7   C17 
     3    An0001     Angle       3      C1   H7   C17 

List of user defined internal/fixed coordinates and constraints

- - - - - - - - - - - - - - - - - - - - - - - - - - - - - - - - - 
    N      Name   Type      Pname     Coeff       Value   Unit
- - - - - - - - - - - - - - - - - - - - - - - - - - - - - - - - - 
    1    Cns001    Con     Bo0001     1.000     1.80000 Angstrom
- - - - - - - - - - - - - - - - - - - - - - - - - - - - - - - - - 
    2    Cns002    Con     Bo0002     1.000     0.90000 Angstrom
- - - - - - - - - - - - - - - - - - - - - - - - - - - - - - - - - 
    3    Cns003    Con     An0001     1.000   180.00000   Degree
- - - - - - - - - - - - - - - - - - - - - - - - - - - - - - - - - 


******************************************************************



 *** Long output written to logfile /mnt/storage/home/lb17101/optimizations/7/7_1.80_0.90.log ***


 Geometry optimization using default procedure for command CF-UKS-SCF

 Geometry written to block  1 of record 700

 SLAPAF optimizer by R. Lindh and Ignacio F. Galvan entered

 Constraints section
ConstraintsConstraintsConstraintsConstraintsConstraintsConstraintsConstraintsConstraintsConstraintsConstraints
ConstraintsConstraintsConstraintsConstraintsConstraintsConstraintsConstraintsConstraintsConstraintsConstraints
Constraints                                                                                        Constraints
Constraints                                 C O N S T R A I N T S                                  Constraints
Constraints                                                                                        Constraints

************************************************************************************************************************
BO0001 = BOND       H7    C1
BO0002 = BOND       H7    C17
AN0001 = ANGLE      C1    H7    C17
VALUES
BO0001 =      1.80000000 ANGSTROM
BO0002 =      0.90000000 ANGSTROM
AN0001 =    180.00000000 DEGREE
************************************************************************************************************************


 *************************************************************
 * Values of the primitive constraints                       *
 *************************************************************
 BO0001   : Bond Length=  2.310086 / Angstrom  4.365431 / bohr
 BO0002   : Bond Length=  1.100000 / Angstrom  2.078699 / bohr
  Valence angle close to end in range of definition
 AN0001   : Angle=      178.1204   / Degree    3.108788 / rad

 *******************************************
 * Values of the constraints   / au or rad *
 *******************************************
   Label        C         C0
 Cns001      4.365431  3.401507
 Cns002      2.078699  1.700754
 Cns003      3.108788  3.141593


 ITER.   ENERGY(OLD)    ENERGY(NEW)      DE          GRADMAX     GRADNORM    GRADRMS     STEPMAX     STEPLEN     STEPRMS   CPU-time
   1  -289.91799712  -289.91739064     0.00060647  0.00120714  0.00190236  0.00025197  0.15857808  0.35025454  0.00614482      3.75

 Constraints section
ConstraintsConstraintsConstraintsConstraintsConstraintsConstraintsConstraintsConstraintsConstraintsConstraints
ConstraintsConstraintsConstraintsConstraintsConstraintsConstraintsConstraintsConstraintsConstraintsConstraints
Constraints                                                                                        Constraints
Constraints                                 C O N S T R A I N T S                                  Constraints
Constraints                                                                                        Constraints

************************************************************************************************************************
BO0001 = BOND       H7    C1
BO0002 = BOND       H7    C17
AN0001 = ANGLE      C1    H7    C17
VALUES
BO0001 =      1.80000000 ANGSTROM
BO0002 =      0.90000000 ANGSTROM
AN0001 =    180.00000000 DEGREE
************************************************************************************************************************


 *************************************************************
 * Values of the primitive constraints                       *
 *************************************************************
 BO0001   : Bond Length=  2.236226 / Angstrom  4.225854 / bohr
 BO0002   : Bond Length=  1.071040 / Angstrom  2.023972 / bohr
  Valence angle close to end in range of definition
 AN0001   : Angle=      177.8764   / Degree    3.104529 / rad

 *******************************************
 * Values of the constraints   / au or rad *
 *******************************************
   Label        C         C0
 Cns001      4.225854  3.401507
 Cns002      2.023972  1.700754
 Cns003      3.104529  3.141593

   2  -289.91739064  -289.91533708     0.00205357  0.02582613  0.03439804  0.00455613  0.43159266  0.91657897  0.01608033      7.52

 Constraints section
ConstraintsConstraintsConstraintsConstraintsConstraintsConstraintsConstraintsConstraintsConstraintsConstraints
ConstraintsConstraintsConstraintsConstraintsConstraintsConstraintsConstraintsConstraintsConstraintsConstraints
Constraints                                                                                        Constraints
Constraints                                 C O N S T R A I N T S                                  Constraints
Constraints                                                                                        Constraints

************************************************************************************************************************
BO0001 = BOND       H7    C1
BO0002 = BOND       H7    C17
AN0001 = ANGLE      C1    H7    C17
VALUES
BO0001 =      1.80000000 ANGSTROM
BO0002 =      0.90000000 ANGSTROM
AN0001 =    180.00000000 DEGREE
************************************************************************************************************************


 *************************************************************
 * Values of the primitive constraints                       *
 *************************************************************
 BO0001   : Bond Length=  2.162393 / Angstrom  4.086331 / bohr
 BO0002   : Bond Length=  1.042091 / Angstrom  1.969266 / bohr
  Valence angle close to end in range of definition
 AN0001   : Angle=      178.2197   / Degree    3.110521 / rad

 *******************************************
 * Values of the constraints   / au or rad *
 *******************************************
   Label        C         C0
 Cns001      4.086331  3.401507
 Cns002      1.969266  1.700754
 Cns003      3.110521  3.141593

   3  -289.91533708  -289.90680563     0.00853144  0.04626522  0.06463850  0.00856158  0.32283799  0.80069711  0.01404732     11.62

 Constraints section
ConstraintsConstraintsConstraintsConstraintsConstraintsConstraintsConstraintsConstraintsConstraintsConstraints
ConstraintsConstraintsConstraintsConstraintsConstraintsConstraintsConstraintsConstraintsConstraintsConstraints
Constraints                                                                                        Constraints
Constraints                                 C O N S T R A I N T S                                  Constraints
Constraints                                                                                        Constraints

************************************************************************************************************************
BO0001 = BOND       H7    C1
BO0002 = BOND       H7    C17
AN0001 = ANGLE      C1    H7    C17
VALUES
BO0001 =      1.80000000 ANGSTROM
BO0002 =      0.90000000 ANGSTROM
AN0001 =    180.00000000 DEGREE
************************************************************************************************************************


 *************************************************************
 * Values of the primitive constraints                       *
 *************************************************************
 BO0001   : Bond Length=  2.034192 / Angstrom  3.844066 / bohr
 BO0002   : Bond Length=  0.991824 / Angstrom  1.874277 / bohr
  Valence angle close to end in range of definition
 AN0001   : Angle=      178.6488   / Degree    3.118011 / rad

 *******************************************
 * Values of the constraints   / au or rad *
 *******************************************
   Label        C         C0
 Cns001      3.844066  3.401507
 Cns002      1.874277  1.700754
 Cns003      3.118011  3.141593

   4  -289.90680563  -289.89527809     0.01152754  0.10794515  0.14620538  0.01936538  0.28106777  0.82089887  0.01440173     15.60

 Constraints section
ConstraintsConstraintsConstraintsConstraintsConstraintsConstraintsConstraintsConstraintsConstraintsConstraints
ConstraintsConstraintsConstraintsConstraintsConstraintsConstraintsConstraintsConstraintsConstraintsConstraints
Constraints                                                                                        Constraints
Constraints                                 C O N S T R A I N T S                                  Constraints
Constraints                                                                                        Constraints

************************************************************************************************************************
BO0001 = BOND       H7    C1
BO0002 = BOND       H7    C17
AN0001 = ANGLE      C1    H7    C17
VALUES
BO0001 =      1.80000000 ANGSTROM
BO0002 =      0.90000000 ANGSTROM
AN0001 =    180.00000000 DEGREE
************************************************************************************************************************


 *************************************************************
 * Values of the primitive constraints                       *
 *************************************************************
 BO0001   : Bond Length=  1.939627 / Angstrom  3.665365 / bohr
 BO0002   : Bond Length=  0.954747 / Angstrom  1.804210 / bohr
  Valence angle close to end in range of definition
 AN0001   : Angle=      179.1524   / Degree    3.126799 / rad

 *******************************************
 * Values of the constraints   / au or rad *
 *******************************************
   Label        C         C0
 Cns001      3.665365  3.401507
 Cns002      1.804210  1.700754
 Cns003      3.126799  3.141593

   5  -289.89527809  -289.87692594     0.01835215  0.15900349  0.21598249  0.02860758  0.55998977  1.31291935  0.02303367     19.49

 Constraints section
ConstraintsConstraintsConstraintsConstraintsConstraintsConstraintsConstraintsConstraintsConstraintsConstraints
ConstraintsConstraintsConstraintsConstraintsConstraintsConstraintsConstraintsConstraintsConstraintsConstraints
Constraints                                                                                        Constraints
Constraints                                 C O N S T R A I N T S                                  Constraints
Constraints                                                                                        Constraints

************************************************************************************************************************
BO0001 = BOND       H7    C1
BO0002 = BOND       H7    C17
AN0001 = ANGLE      C1    H7    C17
VALUES
BO0001 =      1.80000000 ANGSTROM
BO0002 =      0.90000000 ANGSTROM
AN0001 =    180.00000000 DEGREE
************************************************************************************************************************


 *************************************************************
 * Values of the primitive constraints                       *
 *************************************************************
 BO0001   : Bond Length=  1.841317 / Angstrom  3.479584 / bohr
 BO0002   : Bond Length=  0.916200 / Angstrom  1.731367 / bohr
  Valence angle close to end in range of definition
 AN0001   : Angle=      179.5930   / Degree    3.134490 / rad

 *******************************************
 * Values of the constraints   / au or rad *
 *******************************************
   Label        C         C0
 Cns001      3.479584  3.401507
 Cns002      1.731367  1.700754
 Cns003      3.134490  3.141593

   6  -289.87692594  -289.86802630     0.00889965  0.22594536  0.30656266  0.04060522  0.23778734  0.52891318  0.00927918     23.35

 Constraints section
ConstraintsConstraintsConstraintsConstraintsConstraintsConstraintsConstraintsConstraintsConstraintsConstraints
ConstraintsConstraintsConstraintsConstraintsConstraintsConstraintsConstraintsConstraintsConstraintsConstraints
Constraints                                                                                        Constraints
Constraints                                 C O N S T R A I N T S                                  Constraints
Constraints                                                                                        Constraints

************************************************************************************************************************
BO0001 = BOND       H7    C1
BO0002 = BOND       H7    C17
AN0001 = ANGLE      C1    H7    C17
VALUES
BO0001 =      1.80000000 ANGSTROM
BO0002 =      0.90000000 ANGSTROM
AN0001 =    180.00000000 DEGREE
************************************************************************************************************************


 *************************************************************
 * Values of the primitive constraints                       *
 *************************************************************
 BO0001   : Bond Length=  1.800000 / Angstrom  3.401507 / bohr
 BO0002   : Bond Length=  0.900000 / Angstrom  1.700754 / bohr
  Valence angle close to end in range of definition
 AN0001   : Angle=      179.6243   / Degree    3.135036 / rad

 *******************************************
 * Values of the constraints   / au or rad *
 *******************************************
   Label        C         C0
 Cns001      3.401507  3.401507
 Cns002      1.700754  1.700754
 Cns003      3.135036  3.141593

   7  -289.86802630  -289.86906388    -0.00103759  0.26248688  0.35458033  0.04696531  0.17295602  0.59255718  0.01039574     27.40

 Constraints section
ConstraintsConstraintsConstraintsConstraintsConstraintsConstraintsConstraintsConstraintsConstraintsConstraints
ConstraintsConstraintsConstraintsConstraintsConstraintsConstraintsConstraintsConstraintsConstraintsConstraints
Constraints                                                                                        Constraints
Constraints                                 C O N S T R A I N T S                                  Constraints
Constraints                                                                                        Constraints

************************************************************************************************************************
BO0001 = BOND       H7    C1
BO0002 = BOND       H7    C17
AN0001 = ANGLE      C1    H7    C17
VALUES
BO0001 =      1.80000000 ANGSTROM
BO0002 =      0.90000000 ANGSTROM
AN0001 =    180.00000000 DEGREE
************************************************************************************************************************


 *************************************************************
 * Values of the primitive constraints                       *
 *************************************************************
 BO0001   : Bond Length=  1.800000 / Angstrom  3.401507 / bohr
 BO0002   : Bond Length=  0.900000 / Angstrom  1.700754 / bohr
 AN0001   : Angle=      175.8321   / Degree    3.068849 / rad

 *******************************************
 * Values of the constraints   / au or rad *
 *******************************************
   Label        C         C0
 Cns001      3.401507  3.401507
 Cns002      1.700754  1.700754
 Cns003      3.068849  3.141593

   8  -289.86906388  -289.86942718    -0.00036330  0.26411775  0.35615626  0.04717405  0.17075713  0.40079823  0.00703155     31.19

 Constraints section
ConstraintsConstraintsConstraintsConstraintsConstraintsConstraintsConstraintsConstraintsConstraintsConstraints
ConstraintsConstraintsConstraintsConstraintsConstraintsConstraintsConstraintsConstraintsConstraintsConstraints
Constraints                                                                                        Constraints
Constraints                                 C O N S T R A I N T S                                  Constraints
Constraints                                                                                        Constraints

************************************************************************************************************************
BO0001 = BOND       H7    C1
BO0002 = BOND       H7    C17
AN0001 = ANGLE      C1    H7    C17
VALUES
BO0001 =      1.80000000 ANGSTROM
BO0002 =      0.90000000 ANGSTROM
AN0001 =    180.00000000 DEGREE
************************************************************************************************************************


 *************************************************************
 * Values of the primitive constraints                       *
 *************************************************************
 BO0001   : Bond Length=  1.800000 / Angstrom  3.401507 / bohr
 BO0002   : Bond Length=  0.900000 / Angstrom  1.700754 / bohr
  Valence angle close to end in range of definition
 AN0001   : Angle=      178.8335   / Degree    3.121234 / rad

 *******************************************
 * Values of the constraints   / au or rad *
 *******************************************
   Label        C         C0
 Cns001      3.401507  3.401507
 Cns002      1.700754  1.700754
 Cns003      3.121234  3.141593

   9  -289.86942718  -289.86978808    -0.00036090  0.26165701  0.35436906  0.04693733  0.18381830  0.49831271  0.00874233     34.96

 Constraints section
ConstraintsConstraintsConstraintsConstraintsConstraintsConstraintsConstraintsConstraintsConstraintsConstraints
ConstraintsConstraintsConstraintsConstraintsConstraintsConstraintsConstraintsConstraintsConstraintsConstraints
Constraints                                                                                        Constraints
Constraints                                 C O N S T R A I N T S                                  Constraints
Constraints                                                                                        Constraints

************************************************************************************************************************
BO0001 = BOND       H7    C1
BO0002 = BOND       H7    C17
AN0001 = ANGLE      C1    H7    C17
VALUES
BO0001 =      1.80000000 ANGSTROM
BO0002 =      0.90000000 ANGSTROM
AN0001 =    180.00000000 DEGREE
************************************************************************************************************************


 *************************************************************
 * Values of the primitive constraints                       *
 *************************************************************
 BO0001   : Bond Length=  1.800000 / Angstrom  3.401507 / bohr
 BO0002   : Bond Length=  0.900000 / Angstrom  1.700754 / bohr
  Valence angle close to end in range of definition
 AN0001   : Angle=      179.6509   / Degree    3.135500 / rad

 *******************************************
 * Values of the constraints   / au or rad *
 *******************************************
   Label        C         C0
 Cns001      3.401507  3.401507
 Cns002      1.700754  1.700754
 Cns003      3.135500  3.141593

  10  -289.86978808  -289.87000592    -0.00021784  0.25975675  0.35331464  0.04679767  0.20584320  0.50039560  0.00877887     38.63

 Constraints section
ConstraintsConstraintsConstraintsConstraintsConstraintsConstraintsConstraintsConstraintsConstraintsConstraints
ConstraintsConstraintsConstraintsConstraintsConstraintsConstraintsConstraintsConstraintsConstraintsConstraints
Constraints                                                                                        Constraints
Constraints                                 C O N S T R A I N T S                                  Constraints
Constraints                                                                                        Constraints

************************************************************************************************************************
BO0001 = BOND       H7    C1
BO0002 = BOND       H7    C17
AN0001 = ANGLE      C1    H7    C17
VALUES
BO0001 =      1.80000000 ANGSTROM
BO0002 =      0.90000000 ANGSTROM
AN0001 =    180.00000000 DEGREE
************************************************************************************************************************


 *************************************************************
 * Values of the primitive constraints                       *
 *************************************************************
 BO0001   : Bond Length=  1.800000 / Angstrom  3.401507 / bohr
 BO0002   : Bond Length=  0.900000 / Angstrom  1.700754 / bohr
  Valence angle close to end in range of definition
 AN0001   : Angle=      179.9325   / Degree    3.140414 / rad

 *******************************************
 * Values of the constraints   / au or rad *
 *******************************************
   Label        C         C0
 Cns001      3.401507  3.401507
 Cns002      1.700754  1.700754
 Cns003      3.140414  3.141593

  11  -289.87000592  -289.87004583    -0.00003990  0.25956909  0.35332957  0.04679964  0.13507668  0.33081935  0.00580385     42.34

 Constraints section
ConstraintsConstraintsConstraintsConstraintsConstraintsConstraintsConstraintsConstraintsConstraintsConstraints
ConstraintsConstraintsConstraintsConstraintsConstraintsConstraintsConstraintsConstraintsConstraintsConstraints
Constraints                                                                                        Constraints
Constraints                                 C O N S T R A I N T S                                  Constraints
Constraints                                                                                        Constraints

************************************************************************************************************************
BO0001 = BOND       H7    C1
BO0002 = BOND       H7    C17
AN0001 = ANGLE      C1    H7    C17
VALUES
BO0001 =      1.80000000 ANGSTROM
BO0002 =      0.90000000 ANGSTROM
AN0001 =    180.00000000 DEGREE
************************************************************************************************************************


 *************************************************************
 * Values of the primitive constraints                       *
 *************************************************************
 BO0001   : Bond Length=  1.800000 / Angstrom  3.401507 / bohr
 BO0002   : Bond Length=  0.900000 / Angstrom  1.700754 / bohr
  Valence angle close to end in range of definition
 AN0001   : Angle=      179.5796   / Degree    3.134255 / rad

 *******************************************
 * Values of the constraints   / au or rad *
 *******************************************
   Label        C         C0
 Cns001      3.401507  3.401507
 Cns002      1.700754  1.700754
 Cns003      3.134255  3.141593

  12  -289.87004583  -289.87010257    -0.00005675  0.26023346  0.35377749  0.04685897  0.08587739  0.22110786  0.00387909     46.10

 Constraints section
ConstraintsConstraintsConstraintsConstraintsConstraintsConstraintsConstraintsConstraintsConstraintsConstraints
ConstraintsConstraintsConstraintsConstraintsConstraintsConstraintsConstraintsConstraintsConstraintsConstraints
Constraints                                                                                        Constraints
Constraints                                 C O N S T R A I N T S                                  Constraints
Constraints                                                                                        Constraints

************************************************************************************************************************
BO0001 = BOND       H7    C1
BO0002 = BOND       H7    C17
AN0001 = ANGLE      C1    H7    C17
VALUES
BO0001 =      1.80000000 ANGSTROM
BO0002 =      0.90000000 ANGSTROM
AN0001 =    180.00000000 DEGREE
************************************************************************************************************************


 *************************************************************
 * Values of the primitive constraints                       *
 *************************************************************
 BO0001   : Bond Length=  1.800000 / Angstrom  3.401507 / bohr
 BO0002   : Bond Length=  0.900000 / Angstrom  1.700754 / bohr
  Valence angle close to end in range of definition
 AN0001   : Angle=      179.5472   / Degree    3.133690 / rad

 *******************************************
 * Values of the constraints   / au or rad *
 *******************************************
   Label        C         C0
 Cns001      3.401507  3.401507
 Cns002      1.700754  1.700754
 Cns003      3.133690  3.141593

  13  -289.87010257  -289.87006424     0.00003834  0.26106079  0.35418775  0.04691331  0.10387636  0.24262708  0.00425662     49.90

 Constraints section
ConstraintsConstraintsConstraintsConstraintsConstraintsConstraintsConstraintsConstraintsConstraintsConstraints
ConstraintsConstraintsConstraintsConstraintsConstraintsConstraintsConstraintsConstraintsConstraintsConstraints
Constraints                                                                                        Constraints
Constraints                                 C O N S T R A I N T S                                  Constraints
Constraints                                                                                        Constraints

************************************************************************************************************************
BO0001 = BOND       H7    C1
BO0002 = BOND       H7    C17
AN0001 = ANGLE      C1    H7    C17
VALUES
BO0001 =      1.80000000 ANGSTROM
BO0002 =      0.90000000 ANGSTROM
AN0001 =    180.00000000 DEGREE
************************************************************************************************************************


 *************************************************************
 * Values of the primitive constraints                       *
 *************************************************************
 BO0001   : Bond Length=  1.800000 / Angstrom  3.401507 / bohr
 BO0002   : Bond Length=  0.900000 / Angstrom  1.700754 / bohr
  Valence angle close to end in range of definition
 AN0001   : Angle=      179.2912   / Degree    3.129222 / rad

 *******************************************
 * Values of the constraints   / au or rad *
 *******************************************
   Label        C         C0
 Cns001      3.401507  3.401507
 Cns002      1.700754  1.700754
 Cns003      3.129222  3.141593

  14  -289.87006424  -289.87014704    -0.00008280  0.26082778  0.35384766  0.04686827  0.04899975  0.11538492  0.00202430     53.62

 Constraints section
ConstraintsConstraintsConstraintsConstraintsConstraintsConstraintsConstraintsConstraintsConstraintsConstraints
ConstraintsConstraintsConstraintsConstraintsConstraintsConstraintsConstraintsConstraintsConstraintsConstraints
Constraints                                                                                        Constraints
Constraints                                 C O N S T R A I N T S                                  Constraints
Constraints                                                                                        Constraints

************************************************************************************************************************
BO0001 = BOND       H7    C1
BO0002 = BOND       H7    C17
AN0001 = ANGLE      C1    H7    C17
VALUES
BO0001 =      1.80000000 ANGSTROM
BO0002 =      0.90000000 ANGSTROM
AN0001 =    180.00000000 DEGREE
************************************************************************************************************************


 *************************************************************
 * Values of the primitive constraints                       *
 *************************************************************
 BO0001   : Bond Length=  1.800000 / Angstrom  3.401507 / bohr
 BO0002   : Bond Length=  0.900000 / Angstrom  1.700754 / bohr
  Valence angle close to end in range of definition
 AN0001   : Angle=      179.9741   / Degree    3.141141 / rad

 *******************************************
 * Values of the constraints   / au or rad *
 *******************************************
   Label        C         C0
 Cns001      3.401507  3.401507
 Cns002      1.700754  1.700754
 Cns003      3.141141  3.141593

  15  -289.87014704  -289.87015663    -0.00000959  0.26061692  0.35358306  0.04683322  0.02527945  0.05754151  0.00100950     57.07

 Constraints section
ConstraintsConstraintsConstraintsConstraintsConstraintsConstraintsConstraintsConstraintsConstraintsConstraints
ConstraintsConstraintsConstraintsConstraintsConstraintsConstraintsConstraintsConstraintsConstraintsConstraints
Constraints                                                                                        Constraints
Constraints                                 C O N S T R A I N T S                                  Constraints
Constraints                                                                                        Constraints

************************************************************************************************************************
BO0001 = BOND       H7    C1
BO0002 = BOND       H7    C17
AN0001 = ANGLE      C1    H7    C17
VALUES
BO0001 =      1.80000000 ANGSTROM
BO0002 =      0.90000000 ANGSTROM
AN0001 =    180.00000000 DEGREE
************************************************************************************************************************


 *************************************************************
 * Values of the primitive constraints                       *
 *************************************************************
 BO0001   : Bond Length=  1.800000 / Angstrom  3.401507 / bohr
 BO0002   : Bond Length=  0.900000 / Angstrom  1.700754 / bohr
  Valence angle close to end in range of definition
 AN0001   : Angle=      179.9401   / Degree    3.140548 / rad

 *******************************************
 * Values of the constraints   / au or rad *
 *******************************************
   Label        C         C0
 Cns001      3.401507  3.401507
 Cns002      1.700754  1.700754
 Cns003      3.140548  3.141593

  16  -289.87015663  -289.87018584    -0.00002921  0.26055555  0.35357760  0.04683250  0.02898030  0.05345516  0.00093781     60.58

 Constraints section
ConstraintsConstraintsConstraintsConstraintsConstraintsConstraintsConstraintsConstraintsConstraintsConstraints
ConstraintsConstraintsConstraintsConstraintsConstraintsConstraintsConstraintsConstraintsConstraintsConstraints
Constraints                                                                                        Constraints
Constraints                                 C O N S T R A I N T S                                  Constraints
Constraints                                                                                        Constraints

************************************************************************************************************************
BO0001 = BOND       H7    C1
BO0002 = BOND       H7    C17
AN0001 = ANGLE      C1    H7    C17
VALUES
BO0001 =      1.80000000 ANGSTROM
BO0002 =      0.90000000 ANGSTROM
AN0001 =    180.00000000 DEGREE
************************************************************************************************************************


 *************************************************************
 * Values of the primitive constraints                       *
 *************************************************************
 BO0001   : Bond Length=  1.800000 / Angstrom  3.401507 / bohr
 BO0002   : Bond Length=  0.900000 / Angstrom  1.700754 / bohr
  Valence angle close to end in range of definition
 AN0001   : Angle=      179.7690   / Degree    3.137562 / rad

 *******************************************
 * Values of the constraints   / au or rad *
 *******************************************
   Label        C         C0
 Cns001      3.401507  3.401507
 Cns002      1.700754  1.700754
 Cns003      3.137562  3.141593

  17  -289.87018584  -289.87019137    -0.00000554  0.26073570  0.35371937  0.04685128  0.03462918  0.09076073  0.00159229     64.14

 Constraints section
ConstraintsConstraintsConstraintsConstraintsConstraintsConstraintsConstraintsConstraintsConstraintsConstraints
ConstraintsConstraintsConstraintsConstraintsConstraintsConstraintsConstraintsConstraintsConstraintsConstraints
Constraints                                                                                        Constraints
Constraints                                 C O N S T R A I N T S                                  Constraints
Constraints                                                                                        Constraints

************************************************************************************************************************
BO0001 = BOND       H7    C1
BO0002 = BOND       H7    C17
AN0001 = ANGLE      C1    H7    C17
VALUES
BO0001 =      1.80000000 ANGSTROM
BO0002 =      0.90000000 ANGSTROM
AN0001 =    180.00000000 DEGREE
************************************************************************************************************************


 *************************************************************
 * Values of the primitive constraints                       *
 *************************************************************
 BO0001   : Bond Length=  1.800000 / Angstrom  3.401507 / bohr
 BO0002   : Bond Length=  0.900000 / Angstrom  1.700754 / bohr
  Valence angle close to end in range of definition
 AN0001   : Angle=      179.5531   / Degree    3.133793 / rad

 *******************************************
 * Values of the constraints   / au or rad *
 *******************************************
   Label        C         C0
 Cns001      3.401507  3.401507
 Cns002      1.700754  1.700754
 Cns003      3.133793  3.141593

  18  -289.87019137  -289.87018791     0.00000347  0.26073189  0.35369740  0.04684836  0.01327358  0.03680906  0.00064577     67.70

 Constraints section
ConstraintsConstraintsConstraintsConstraintsConstraintsConstraintsConstraintsConstraintsConstraintsConstraints
ConstraintsConstraintsConstraintsConstraintsConstraintsConstraintsConstraintsConstraintsConstraintsConstraints
Constraints                                                                                        Constraints
Constraints                                 C O N S T R A I N T S                                  Constraints
Constraints                                                                                        Constraints

************************************************************************************************************************
BO0001 = BOND       H7    C1
BO0002 = BOND       H7    C17
AN0001 = ANGLE      C1    H7    C17
VALUES
BO0001 =      1.80000000 ANGSTROM
BO0002 =      0.90000000 ANGSTROM
AN0001 =    180.00000000 DEGREE
************************************************************************************************************************


 *************************************************************
 * Values of the primitive constraints                       *
 *************************************************************
 BO0001   : Bond Length=  1.800000 / Angstrom  3.401507 / bohr
 BO0002   : Bond Length=  0.900000 / Angstrom  1.700754 / bohr
  Valence angle close to end in range of definition
 AN0001   : Angle=      179.8942   / Degree    3.139746 / rad

 *******************************************
 * Values of the constraints   / au or rad *
 *******************************************
   Label        C         C0
 Cns001      3.401507  3.401507
 Cns002      1.700754  1.700754
 Cns003      3.139746  3.141593

  19  -289.87018791  -289.87019474    -0.00000683  0.26070712  0.35366836  0.04684452  0.01413553  0.04618510  0.00081026     71.36

 Constraints section
ConstraintsConstraintsConstraintsConstraintsConstraintsConstraintsConstraintsConstraintsConstraintsConstraints
ConstraintsConstraintsConstraintsConstraintsConstraintsConstraintsConstraintsConstraintsConstraintsConstraints
Constraints                                                                                        Constraints
Constraints                                 C O N S T R A I N T S                                  Constraints
Constraints                                                                                        Constraints

************************************************************************************************************************
BO0001 = BOND       H7    C1
BO0002 = BOND       H7    C17
AN0001 = ANGLE      C1    H7    C17
VALUES
BO0001 =      1.80000000 ANGSTROM
BO0002 =      0.90000000 ANGSTROM
AN0001 =    180.00000000 DEGREE
************************************************************************************************************************


 *************************************************************
 * Values of the primitive constraints                       *
 *************************************************************
 BO0001   : Bond Length=  1.800000 / Angstrom  3.401507 / bohr
 BO0002   : Bond Length=  0.900000 / Angstrom  1.700754 / bohr
  Valence angle close to end in range of definition
 AN0001   : Angle=      179.7353   / Degree    3.136973 / rad

 *******************************************
 * Values of the constraints   / au or rad *
 *******************************************
   Label        C         C0
 Cns001      3.401507  3.401507
 Cns002      1.700754  1.700754
 Cns003      3.136973  3.141593

  20  -289.87019474  -289.87018413     0.00001061  0.26069073  0.35364615  0.04684158  0.00509860  0.01527725  0.00026802     74.25

 Constraints section
ConstraintsConstraintsConstraintsConstraintsConstraintsConstraintsConstraintsConstraintsConstraintsConstraints
ConstraintsConstraintsConstraintsConstraintsConstraintsConstraintsConstraintsConstraintsConstraintsConstraints
Constraints                                                                                        Constraints
Constraints                                 C O N S T R A I N T S                                  Constraints
Constraints                                                                                        Constraints

************************************************************************************************************************
BO0001 = BOND       H7    C1
BO0002 = BOND       H7    C17
AN0001 = ANGLE      C1    H7    C17
VALUES
BO0001 =      1.80000000 ANGSTROM
BO0002 =      0.90000000 ANGSTROM
AN0001 =    180.00000000 DEGREE
************************************************************************************************************************


 *************************************************************
 * Values of the primitive constraints                       *
 *************************************************************
 BO0001   : Bond Length=  1.800000 / Angstrom  3.401507 / bohr
 BO0002   : Bond Length=  0.900000 / Angstrom  1.700754 / bohr
  Valence angle close to end in range of definition
 AN0001   : Angle=      179.9068   / Degree    3.139966 / rad

 *******************************************
 * Values of the constraints   / au or rad *
 *******************************************
   Label        C         C0
 Cns001      3.401507  3.401507
 Cns002      1.700754  1.700754
 Cns003      3.139966  3.141593

  21  -289.87018413  -289.87018613    -0.00000200  0.26074598  0.35367480  0.04684537  0.01367659  0.04383151  0.00076897     77.61

 Constraints section
ConstraintsConstraintsConstraintsConstraintsConstraintsConstraintsConstraintsConstraintsConstraintsConstraints
ConstraintsConstraintsConstraintsConstraintsConstraintsConstraintsConstraintsConstraintsConstraintsConstraints
Constraints                                                                                        Constraints
Constraints                                 C O N S T R A I N T S                                  Constraints
Constraints                                                                                        Constraints

************************************************************************************************************************
BO0001 = BOND       H7    C1
BO0002 = BOND       H7    C17
AN0001 = ANGLE      C1    H7    C17
VALUES
BO0001 =      1.80000000 ANGSTROM
BO0002 =      0.90000000 ANGSTROM
AN0001 =    180.00000000 DEGREE
************************************************************************************************************************


 *************************************************************
 * Values of the primitive constraints                       *
 *************************************************************
 BO0001   : Bond Length=  1.800000 / Angstrom  3.401507 / bohr
 BO0002   : Bond Length=  0.900000 / Angstrom  1.700754 / bohr
  Valence angle close to end in range of definition
 AN0001   : Angle=      179.7602   / Degree    3.137407 / rad

 *******************************************
 * Values of the constraints   / au or rad *
 *******************************************
   Label        C         C0
 Cns001      3.401507  3.401507
 Cns002      1.700754  1.700754
 Cns003      3.137407  3.141593

  22  -289.87018613  -289.87018380     0.00000233  0.26078419  0.35368900  0.04684725  0.00534816  0.01233908  0.00021648     80.61

 Constraints section
ConstraintsConstraintsConstraintsConstraintsConstraintsConstraintsConstraintsConstraintsConstraintsConstraints
ConstraintsConstraintsConstraintsConstraintsConstraintsConstraintsConstraintsConstraintsConstraintsConstraints
Constraints                                                                                        Constraints
Constraints                                 C O N S T R A I N T S                                  Constraints
Constraints                                                                                        Constraints

************************************************************************************************************************
BO0001 = BOND       H7    C1
BO0002 = BOND       H7    C17
AN0001 = ANGLE      C1    H7    C17
VALUES
BO0001 =      1.80000000 ANGSTROM
BO0002 =      0.90000000 ANGSTROM
AN0001 =    180.00000000 DEGREE
************************************************************************************************************************


 *************************************************************
 * Values of the primitive constraints                       *
 *************************************************************
 BO0001   : Bond Length=  1.800000 / Angstrom  3.401507 / bohr
 BO0002   : Bond Length=  0.900000 / Angstrom  1.700754 / bohr
  Valence angle close to end in range of definition
 AN0001   : Angle=      179.9163   / Degree    3.140132 / rad

 *******************************************
 * Values of the constraints   / au or rad *
 *******************************************
   Label        C         C0
 Cns001      3.401507  3.401507
 Cns002      1.700754  1.700754
 Cns003      3.140132  3.141593

  23  -289.87018380  -289.87018859    -0.00000478  0.26081668  0.35370375  0.04684921  0.01338351  0.03819441  0.00067008     83.98

 Constraints section
ConstraintsConstraintsConstraintsConstraintsConstraintsConstraintsConstraintsConstraintsConstraintsConstraints
ConstraintsConstraintsConstraintsConstraintsConstraintsConstraintsConstraintsConstraintsConstraintsConstraints
Constraints                                                                                        Constraints
Constraints                                 C O N S T R A I N T S                                  Constraints
Constraints                                                                                        Constraints

************************************************************************************************************************
BO0001 = BOND       H7    C1
BO0002 = BOND       H7    C17
AN0001 = ANGLE      C1    H7    C17
VALUES
BO0001 =      1.80000000 ANGSTROM
BO0002 =      0.90000000 ANGSTROM
AN0001 =    180.00000000 DEGREE
************************************************************************************************************************


 *************************************************************
 * Values of the primitive constraints                       *
 *************************************************************
 BO0001   : Bond Length=  1.800000 / Angstrom  3.401507 / bohr
 BO0002   : Bond Length=  0.900000 / Angstrom  1.700754 / bohr
  Valence angle close to end in range of definition
 AN0001   : Angle=      179.7804   / Degree    3.137761 / rad

 *******************************************
 * Values of the constraints   / au or rad *
 *******************************************
   Label        C         C0
 Cns001      3.401507  3.401507
 Cns002      1.700754  1.700754
 Cns003      3.137761  3.141593

  24  -289.87018859  -289.87018761     0.00000098  0.26080519  0.35368751  0.04684706  0.00546601  0.01051620  0.00018449     86.98

 Constraints section
ConstraintsConstraintsConstraintsConstraintsConstraintsConstraintsConstraintsConstraintsConstraintsConstraints
ConstraintsConstraintsConstraintsConstraintsConstraintsConstraintsConstraintsConstraintsConstraintsConstraints
Constraints                                                                                        Constraints
Constraints                                 C O N S T R A I N T S                                  Constraints
Constraints                                                                                        Constraints

************************************************************************************************************************
BO0001 = BOND       H7    C1
BO0002 = BOND       H7    C17
AN0001 = ANGLE      C1    H7    C17
VALUES
BO0001 =      1.80000000 ANGSTROM
BO0002 =      0.90000000 ANGSTROM
AN0001 =    180.00000000 DEGREE
************************************************************************************************************************


 *************************************************************
 * Values of the primitive constraints                       *
 *************************************************************
 BO0001   : Bond Length=  1.800000 / Angstrom  3.401507 / bohr
 BO0002   : Bond Length=  0.900000 / Angstrom  1.700754 / bohr
  Valence angle close to end in range of definition
 AN0001   : Angle=      179.9314   / Degree    3.140396 / rad

 *******************************************
 * Values of the constraints   / au or rad *
 *******************************************
   Label        C         C0
 Cns001      3.401507  3.401507
 Cns002      1.700754  1.700754
 Cns003      3.140396  3.141593

 Geometry section
 Geometry section
  25  -289.87018761  -289.87018382     0.00000379  0.00022087  0.00040277  0.00005813  0.01297187  0.03513343  0.00061638     90.42

 END OF GEOMETRY OPTIMIZATION.

 Current geometry (xyz format, in Angstrom)

   19
 CF-UKS-SCF000/SVP  ENERGY=-289.87018382
 C         -8.0635179811        2.6109495103       -0.6009736784
 C         -6.5726321982        2.4666362617       -0.6804616743
 H         -8.5930099142        1.7581570960       -1.0769932395
 H         -8.4206269976        3.5498724776       -1.0757021214
 H         -8.4162221578        2.6448208743        0.4601320908
 C         -5.7372281212        3.6815825908       -0.4125954336
 C         -6.0082325162        1.0833049866       -0.4765584308
 H         -6.5074859656        2.5001308662       -2.4789705233
 H         -6.1846478457        4.5923169098       -0.8642385587
 H         -4.6999068050        3.5853086433       -0.7935496846
 H         -5.6495469248        3.8909715152        0.6837660228
 H         -6.5899726111        0.3668593424       -1.1032103494
 H         -6.2328273559        0.7580487733        0.5735855201
 C         -4.5104213974        0.8969744883       -0.7405738546
 H         -4.2346286254        1.1895685486       -1.7751835577
 H         -4.2194138438       -0.1642428984       -0.6103532737
 H         -3.8872954767        1.4958906685       -0.0462133645
 C         -6.4723377700        2.5187765817       -3.3780906163
 N         -6.4121254924        2.5438127639       -4.5425952726

 **********************************************************************************************************************************

 Geometry written to block  1 of record 700


 **********************************************************************************************************************************
 DATASETS  * FILE   NREC   LENGTH (MB)   RECORD NAMES
              1      19       31.21       500      610      700      900      950      970     1000      129      960     1100   
                                          VAR    BASINP    GEOM    SYMINP    ZMAT    AOBASIS   BASIS     P2S    ABASIS      S 
                                         1400     1410     1200     1210     1080     1600     1650     1700     1800   
                                           T        V       H0       H01     AOSYM     SMH    MOLCAS    OPER     GRID   

              2       7        7.96       700     1000      520     2100     1800     2200      520(1)
                                         GEOM     BASIS   MCVARS     RHF     GRID      UKS    MCVARS    

 PROGRAMS   *        TOTAL      OPTG    DF-UKS     DF-HF       INT
 CPU TIMES  *        96.95     90.42      2.98      3.10      0.31
 REAL TIME  *       101.98 SEC
 DISK USED  *        42.63 MB (local),      170.51 MB (total)
 SF USED    *        33.08 MB
 GA USED    *         3.27 MB       (max)       2.24 MB       (current)
 **********************************************************************************************************************************

 Density functional group PBE0=PBEX+PBEC
 Functional: PBEX(Automatically generated (new) PBEX)                          Gradient terms: 1
 Functional: PBEC(Automatically generated (new) PBEC)                          Gradient terms: 1
 Use libxcgrid:  F
 Use grid at  1800.2


 Exact exchange will be calculated, factor:  0.2500

 Functional: PBEX                      Factor:  0.7500
 Functional: PBEC                      Factor:  1.0000

  129907 words reserved for DFT integration

 PROGRAM * UKS-SCF (Unrestricted Kohn-Sham)     Authors: W. Meyer, H.-J. Werner, P.J. Knowles, 1993

 NUMBER OF ELECTRONS:      28+   27-    SPACE SYMMETRY=1    SPIN SYMMETRY: Doublet 
 CONVERGENCE THRESHOLDS:    1.00E-06 (Density)    1.00E-06 (Energy)
 INTEGRAL THRESHOLDS:       1.00E-11 (Initial)    1.00E-11 (Final)
 MAX. NUMBER OF ITERATIONS:       60
 INTERPOLATION TYPE:            DIIS
 INTERPOLATION STEPS:              2 (START)      1 (STEP)
 LEVEL SHIFTS:                 -0.20 (ALPHA)  -0.20 (BETA) 



 Use fine grid record 1800.2 for energy threshold  1.0D-06

 Coulomb fitting
 Screening thresholds:    THRAO_COUL= 1.0D-14    THRAO= 1.0D-12    THROV= 1.0D-12

 Reserved 2 MW to cache 100.0% of significant integrals (8 MW global). CPU: 0.1 sec

 Molecular orbitals read from record     2200.2  Type=UKS/ALPHA (state 1.1)
 Molecular orbitals read from record     2200.2  Type=UKS/BETA (state 1.1)

 Molecular orbital dump at record        2201.2

 Initial alpha occupation  28
 Initial beta  occupation  27

 Direct Fock-matrix evaluation.        Author: H.-J. Werner (1996)

 Integral Threshold:                  0.1D-09

 ITERATION   DDIFF            GRAD            ENERGY        2-EL.EN.            DIPOLE MOMENTS         DIIS   CPU(IT)  CPU(TOT)
    1      0.000D+00      0.000D+00      -289.91204317    829.831869   -0.01855   -0.06208    1.40149    0      3.0      3.1
    2      0.202D-02      0.580D-03      -289.91505943    829.408340   -0.02065   -0.06107    1.42701    1      2.1      5.2
    3      0.684D-03      0.125D-03      -289.91542725    829.590527   -0.02215   -0.06130    1.44166    2      2.0      7.2
    4      0.308D-03      0.478D-04      -289.91551585    829.522273   -0.02273   -0.06093    1.44862    3      2.2      9.4
    5      0.105D-03      0.222D-04      -289.91553152    829.584686   -0.02350   -0.06113    1.44562    4      2.0     11.4
    6      0.349D-04      0.124D-04      -289.91553425    829.584184   -0.02394   -0.06110    1.45013    5      2.1     13.4
    7      0.198D-04      0.770D-05      -289.91553530    829.579146   -0.02388   -0.06099    1.44802    6      2.4     15.8
    8      0.706D-05      0.151D-05      -289.91553540    829.579319   -0.02402   -0.06098    1.44810    7      1.8     17.7
    9      0.260D-05      0.732D-06      -289.91553543    829.579583   -0.02401   -0.06097    1.44804    8      1.9     19.5
   10      0.910D-06      0.353D-06      -289.91553544    829.579646   -0.02401   -0.06096    1.44808    8      1.9     21.5
   11      0.439D-06      0.260D-06      -289.91553544    829.579579   -0.02401   -0.06096    1.44807    8      2.1     23.6

 Final alpha occupancy:  28
 Final beta  occupancy:  27

 !UKS STATE  1.1 Energy              -289.915535441227
 Nuclear energy                       288.11172498
 One-electron energy                 -959.83497566
 Two-electron energy                  414.78978956
 Density functional                   -32.98207432     PBEX=-41.61439548 PBEC= -1.77127771
 Virial quotient                       -1.01056528
 !UKS STATE  1.1 Dipole moment         -0.02401074    -0.06096261     1.44806702
 Dipole moment /Debye                  -0.06102521    -0.15494135     3.68037819

 Orbital energies for positive spin:

         1.1          2.1          3.1          4.1          5.1          6.1          7.1          8.1          9.1         10.1
    -14.404549   -10.262069   -10.258320   -10.250104   -10.244749   -10.244711   -10.238846    -0.921748    -0.848084    -0.763350

        11.1         12.1         13.1         14.1         15.1         16.1         17.1         18.1         19.1         20.1
     -0.717385    -0.665293    -0.651895    -0.553412    -0.480855    -0.479478    -0.456467    -0.437413    -0.410726    -0.406167

        21.1         22.1         23.1         24.1         25.1         26.1         27.1         28.1         29.1         30.1
     -0.389128    -0.384678    -0.371645    -0.363744    -0.362976    -0.359983    -0.356889    -0.208110     0.020466     0.021794

 Orbital energies for negative spin:

         1.1          2.1          3.1          4.1          5.1          6.1          7.1          8.1          9.1         10.1
    -14.404676   -10.260324   -10.251148   -10.245827   -10.245780   -10.242676   -10.238712    -0.920854    -0.830706    -0.759813

        11.1         12.1         13.1         14.1         15.1         16.1         17.1         18.1         19.1         20.1
     -0.715083    -0.656384    -0.647415    -0.536794    -0.476592    -0.467940    -0.449760    -0.428897    -0.404773    -0.404504

        21.1         22.1         23.1         24.1         25.1         26.1         27.1         28.1         29.1         30.1
     -0.387832    -0.384071    -0.367519    -0.362769    -0.361771    -0.356302    -0.352482    -0.048346     0.022076     0.023605


 HOMO     28.1    -0.208110 =      -5.6630eV
 LUMO    -28.1    -0.048346 =      -1.3156eV
 LUMO-HOMO         0.159764 =       4.3474eV

 EXPECTATION VALUE OF S**2:             0.75493939

 Occupation number threshold for pseudo-canonical orbitals: 1.9990 (occupied), 0.0010 (virtual)

 Number of pseudo-canonical occupied orbitals per symmetry:   26
 Number of active natural orbitals per symmetry:               3

 Natural orbitals saved to record    2201.2 (Orbital set 3)

 Orbital spaces for UNO-CAS (Min. occupation: 0.020  Max. occupation: 1.980):

 Closed:       27
 Active:        1


 **********************************************************************************************************************************
 DATASETS  * FILE   NREC   LENGTH (MB)   RECORD NAMES
              1      19       31.21       500      610      700      900      950      970     1000      129      960     1100   
                                          VAR    BASINP    GEOM    SYMINP    ZMAT    AOBASIS   BASIS     P2S    ABASIS      S 
                                         1400     1410     1200     1210     1080     1600     1650     1700     1800   
                                           T        V       H0       H01     AOSYM     SMH    MOLCAS    OPER     GRID   

              2       8       11.47       700     1000      520     2100     1800     2200      520(1)  2201   
                                         GEOM     BASIS   MCVARS     RHF     GRID      UKS    MCVARS     UKS  

 PROGRAMS   *        TOTAL    DF-UKS      OPTG    DF-UKS     DF-HF       INT
 CPU TIMES  *       120.58     23.63     90.42      2.98      3.10      0.31
 REAL TIME  *       127.70 SEC
 DISK USED  *        42.74 MB (local),      170.97 MB (total)
 SF USED    *        33.08 MB
 GA USED    *         3.27 MB       (max)       2.24 MB       (current)
 **********************************************************************************************************************************


 PROGRAM * OPT (Geometry optimization)     Authors: F. Eckert and H.-J. Werner


 BFGS update of hessian


********** USER DEFINED INT/FIX/CONSTRAINTS ****************

List of primitive internal coordinates

     N      Name     Type   Natoms   Atom list

     1    Bo0001     Bond        2      H7   C1  
     2    Bo0002     Bond        2      H7   C17 
     3    An0001     Angle       3      C1   H7   C17 

List of user defined internal/fixed coordinates and constraints

- - - - - - - - - - - - - - - - - - - - - - - - - - - - - - - - - 
    N      Name   Type      Pname     Coeff       Value   Unit
- - - - - - - - - - - - - - - - - - - - - - - - - - - - - - - - - 
    1    Cns001    Con     Bo0001     1.000     1.80000 Angstrom
- - - - - - - - - - - - - - - - - - - - - - - - - - - - - - - - - 
    2    Cns002    Con     Bo0002     1.000     0.90000 Angstrom
- - - - - - - - - - - - - - - - - - - - - - - - - - - - - - - - - 
    3    Cns003    Con     An0001     1.000   180.00000   Degree
- - - - - - - - - - - - - - - - - - - - - - - - - - - - - - - - - 


******************************************************************



 Geometry optimization using default procedure for command CF-UKS-SCF

[...]
 Virial quotient                       -1.00409500
 !UKS STATE  1.1 Dipole moment         -0.02425831    -0.07048372     1.52856953
 Dipole moment /Debye                  -0.06165443    -0.17914002     3.88498176

 Orbital energies for positive spin:

         1.1          2.1          3.1          4.1          5.1          6.1          7.1          8.1          9.1         10.1
    -14.394826   -10.249498   -10.243529   -10.237677   -10.230190   -10.230114   -10.223814    -0.937408    -0.860533    -0.775373

        11.1         12.1         13.1         14.1         15.1         16.1         17.1         18.1         19.1         20.1
     -0.728894    -0.673643    -0.661767    -0.561575    -0.485550    -0.485335    -0.460346    -0.442380    -0.415849    -0.409561

        21.1         22.1         23.1         24.1         25.1         26.1         27.1         28.1         29.1         30.1
     -0.392392    -0.391390    -0.374872    -0.368405    -0.367519    -0.362169    -0.358816    -0.209858     0.014192     0.015011

 Orbital energies for negative spin:

         1.1          2.1          3.1          4.1          5.1          6.1          7.1          8.1          9.1         10.1
    -14.394920   -10.241854   -10.238562   -10.234499   -10.231088   -10.230999   -10.223688    -0.936446    -0.843247    -0.771838

        11.1         12.1         13.1         14.1         15.1         16.1         17.1         18.1         19.1         20.1
     -0.726742    -0.665041    -0.656984    -0.544363    -0.481372    -0.473817    -0.453846    -0.434038    -0.409780    -0.407861

        21.1         22.1         23.1         24.1         25.1         26.1         27.1         28.1         29.1         30.1
     -0.391075    -0.390713    -0.370826    -0.367531    -0.366147    -0.358653    -0.354165    -0.051569     0.015839     0.016907


 HOMO     28.1    -0.209858 =      -5.7105eV
 LUMO    -28.1    -0.051569 =      -1.4033eV
 LUMO-HOMO         0.158289 =       4.3073eV

 EXPECTATION VALUE OF S**2:             0.75518576

 Occupation number threshold for pseudo-canonical orbitals: 1.9990 (occupied), 0.0010 (virtual)

 Number of pseudo-canonical occupied orbitals per symmetry:   26
 Number of active natural orbitals per symmetry:               3

 Natural orbitals saved to record    2204.2 (Orbital set 3)

 Orbital spaces for UNO-CAS (Min. occupation: 0.020  Max. occupation: 1.980):

 Closed:       27
 Active:        1


 **********************************************************************************************************************************
 DATASETS  * FILE   NREC   LENGTH (MB)   RECORD NAMES
              1      19       33.38       500      610      700      900      950      970     1001      129      960     1100   
                                          VAR    BASINP    GEOM    SYMINP    ZMAT    AOBASIS   BASIS     P2S    ABASIS      S 
                                         1400     1410     1200     1210     1080     1600     1650     1700     1800   
                                           T        V       H0       H01     AOSYM     SMH    MOLCAS    OPER     GRID   

              2      12       26.75       700     1000      520     2100     1800     2200      520(1)  2201     2202     1001   
                                         GEOM     BASIS   MCVARS     RHF     GRID      UKS    MCVARS     UKS      UKS     BASIS   
                                         2203     2204   
                                          UKS      UKS  

 PROGRAMS   *        TOTAL    DF-UKS    DF-UKS       INT    DF-UKS      OPTG    DF-UKS      OPTG    DF-UKS     DF-HF       INT
 CPU TIMES  *       392.73    130.52      5.19      0.32      2.66    133.45     23.63     90.42      2.98      3.10      0.31
 REAL TIME  *       401.66 SEC
 DISK USED  *        60.22 MB (local),      240.88 MB (total)
 SF USED    *        33.08 MB
 GA USED    *         3.27 MB       (max)       2.25 MB       (current)
 **********************************************************************************************************************************

 Density functional group PBE0=PBEX+PBEC
 Functional: PBEX(Automatically generated (new) PBEX)                          Gradient terms: 1
 Functional: PBEC(Automatically generated (new) PBEC)                          Gradient terms: 1
 Use libxcgrid:  F
 Use grid at  1800.2


 Exact exchange will be calculated, factor:  0.2500

 Functional: PBEX                      Factor:  0.7500
 Functional: PBEC                      Factor:  1.0000

  234265 words reserved for DFT integration

 PROGRAM * UKS-SCF (Unrestricted Kohn-Sham)     Authors: W. Meyer, H.-J. Werner, P.J. Knowles, 1993

 NUMBER OF ELECTRONS:      28+   27-    SPACE SYMMETRY=1    SPIN SYMMETRY: Doublet 
 CONVERGENCE THRESHOLDS:    1.00E-07 (Density)    1.00E-06 (Energy)
 INTEGRAL THRESHOLDS:       1.00E-11 (Initial)    1.00E-11 (Final)
 MAX. NUMBER OF ITERATIONS:       60
 INTERPOLATION TYPE:            DIIS
 INTERPOLATION STEPS:              2 (START)      1 (STEP)
 LEVEL SHIFTS:                 -0.20 (ALPHA)  -0.20 (BETA) 



 Use fine grid record 1800.2 for energy threshold  1.0D-06
 Molecular orbitals read from record     2204.2  Type=UKS/ALPHA (state 1.1)
 Molecular orbitals read from record     2204.2  Type=UKS/BETA (state 1.1)

 Molecular orbital dump at record        2205.2

 Initial alpha occupation  28
 Initial beta  occupation  27

 Direct Fock-matrix evaluation.        Author: H.-J. Werner (1996)

 Integral Threshold:                  0.1D-10

 ITERATION   DDIFF            GRAD            ENERGY        2-EL.EN.            DIPOLE MOMENTS         DIIS   CPU(IT)  CPU(TOT)
    1      0.000D+00      0.000D+00      -290.23497062    833.134027   -0.02426   -0.07048    1.52857    0     12.2     12.2
    2      0.503D-04      0.872D-05      -290.23497231    833.130152   -0.02429   -0.07049    1.52845    1     10.7     22.9
    3      0.164D-04      0.149D-05      -290.23497241    833.131195   -0.02433   -0.07050    1.52834    2     10.4     33.3
    4      0.562D-05      0.311D-06      -290.23497242    833.131021   -0.02436   -0.07050    1.52839    3     10.3     43.6
    5      0.123D-05      0.135D-06      -290.23497242    833.131283   -0.02437   -0.07051    1.52830    4      9.7     53.3
    6      0.567D-06      0.870D-07      -290.23497242    833.131301   -0.02438   -0.07051    1.52835    5      9.4     62.7
    7      0.180D-06      0.247D-07      -290.23497242    833.131278   -0.02438   -0.07051    1.52834    6      9.2     71.9
    8      0.901D-07      0.766D-08      -290.23497242    833.131274   -0.02438   -0.07051    1.52834    7      8.8     80.7
    9      0.188D-07      0.234D-08      -290.23497242    833.131283   -0.02438   -0.07051    1.52834    7      8.2     89.0

 Final alpha occupancy:  28
 Final beta  occupancy:  27

 !UKS STATE  1.1 Energy              -290.234972420150
 Nuclear energy                       289.61701813
 One-electron energy                 -963.32860533
 Two-electron energy                  416.56564171
 Density functional                   -33.08902693     PBEX=-41.76922056 PBEC= -1.76211151
 Virial quotient                       -1.00410975
 !UKS STATE  1.1 Dipole moment         -0.02438467    -0.07051211     1.52834008
 Dipole moment /Debye                  -0.06197560    -0.17921216     3.88439859

 Orbital energies for positive spin:

         1.1          2.1          3.1          4.1          5.1          6.1          7.1          8.1          9.1         10.1
    -14.394870   -10.249516   -10.243622   -10.237697   -10.230232   -10.230163   -10.223868    -0.937412    -0.860534    -0.775380

        11.1         12.1         13.1         14.1         15.1         16.1         17.1         18.1         19.1         20.1
     -0.728900    -0.673650    -0.661771    -0.561576    -0.485557    -0.485341    -0.460358    -0.442382    -0.415843    -0.409572

        21.1         22.1         23.1         24.1         25.1         26.1         27.1         28.1         29.1         30.1
     -0.392392    -0.391360    -0.374877    -0.368424    -0.367538    -0.362172    -0.358812    -0.209837     0.014165     0.014993

 Orbital energies for negative spin:

         1.1          2.1          3.1          4.1          5.1          6.1          7.1          8.1          9.1         10.1
    -14.394964   -10.241947   -10.238582   -10.234515   -10.231130   -10.231047   -10.223743    -0.936450    -0.843247    -0.771844

        11.1         12.1         13.1         14.1         15.1         16.1         17.1         18.1         19.1         20.1
     -0.726748    -0.665048    -0.656990    -0.544363    -0.481377    -0.473823    -0.453857    -0.434043    -0.409775    -0.407872

        21.1         22.1         23.1         24.1         25.1         26.1         27.1         28.1         29.1         30.1
     -0.391073    -0.390686    -0.370834    -0.367551    -0.366165    -0.358655    -0.354160    -0.051532     0.015811     0.016889


 HOMO     28.1    -0.209837 =      -5.7099eV
 LUMO    -28.1    -0.051532 =      -1.4023eV
 LUMO-HOMO         0.158305 =       4.3077eV

 EXPECTATION VALUE OF S**2:             0.75518642

 Occupation number threshold for pseudo-canonical orbitals: 1.9990 (occupied), 0.0010 (virtual)

 Number of pseudo-canonical occupied orbitals per symmetry:   26
 Number of active natural orbitals per symmetry:               3

 Natural orbitals saved to record    2205.2 (Orbital set 3)

 Orbital spaces for UNO-CAS (Min. occupation: 0.020  Max. occupation: 1.980):

 Closed:       27
 Active:        1


 **********************************************************************************************************************************
 DATASETS  * FILE   NREC   LENGTH (MB)   RECORD NAMES
              1      19       33.38       500      610      700      900      950      970     1001      129      960     1100   
                                          VAR    BASINP    GEOM    SYMINP    ZMAT    AOBASIS   BASIS     P2S    ABASIS      S 
                                         1400     1410     1200     1210     1080     1600     1650     1700     1800   
                                           T        V       H0       H01     AOSYM     SMH    MOLCAS    OPER     GRID   

              2      13       32.61       700     1000      520     2100     1800     2200      520(1)  2201     2202     1001   
                                         GEOM     BASIS   MCVARS     RHF     GRID      UKS    MCVARS     UKS      UKS     BASIS   
                                         2203     2204     2205   
                                          UKS      UKS      UKS  

 PROGRAMS   *        TOTAL   UKS-SCF    DF-UKS    DF-UKS       INT    DF-UKS      OPTG    DF-UKS      OPTG    DF-UKS     DF-HF
 CPU TIMES  *       481.79     89.06    130.52      5.19      0.32      2.66    133.45     23.63     90.42      2.98      3.10
 REAL TIME  *       490.78 SEC
 DISK USED  *        66.08 MB (local),      264.30 MB (total)
 SF USED    *        33.08 MB
 GA USED    *         3.27 MB       (max)       2.25 MB       (current)
 **********************************************************************************************************************************

 Density functional group B3LYP=B88+DIRAC+LYP+VWN5
 Functional: B88(Automatically generated (new) B88)                            Gradient terms: 1
 Functional: DIRAC(Automatically generated (new) DIRAC)                        Gradient terms: 0
 Functional: LYP(Automatically generated (new) LYP)                            Gradient terms: 1
 Functional: VWN5(Automatically generated (new) VWN5)                          Gradient terms: 0
 Use libxcgrid:  F
 Use grid at  1800.2


 Exact exchange will be calculated, factor:  0.2000

 Functional: B88                       Factor:  0.7200
 Functional: DIRAC                     Factor:  0.0800
 Functional: LYP                       Factor:  0.8100
 Functional: VWN5                      Factor:  0.1900

  234265 words reserved for DFT integration

 PROGRAM * UKS-SCF (Unrestricted Kohn-Sham)     Authors: W. Meyer, H.-J. Werner, P.J. Knowles, 1993

 NUMBER OF ELECTRONS:      28+   27-    SPACE SYMMETRY=1    SPIN SYMMETRY: Doublet 
 CONVERGENCE THRESHOLDS:    1.00E-07 (Density)    1.00E-06 (Energy)
 INTEGRAL THRESHOLDS:       1.00E-11 (Initial)    1.00E-11 (Final)
 MAX. NUMBER OF ITERATIONS:       60
 INTERPOLATION TYPE:            DIIS
 INTERPOLATION STEPS:              2 (START)      1 (STEP)
 LEVEL SHIFTS:                 -0.20 (ALPHA)  -0.20 (BETA) 



 Use fine grid record 1800.2 for energy threshold  1.0D-06
 Molecular orbitals read from record     2205.2  Type=UKS/ALPHA (state 1.1)
 Molecular orbitals read from record     2205.2  Type=UKS/BETA (state 1.1)

 Molecular orbital dump at record        2206.2

 Initial alpha occupation  28
 Initial beta  occupation  27

 Direct Fock-matrix evaluation.        Author: H.-J. Werner (1996)

 Integral Threshold:                  0.1D-10

 ITERATION   DDIFF            GRAD            ENERGY        2-EL.EN.            DIPOLE MOMENTS         DIIS   CPU(IT)  CPU(TOT)
    1      0.000D+00      0.000D+00      -290.40616902    837.326217   -0.02438   -0.07051    1.52834    0     11.7     11.7
    2      0.125D-02      0.389D-03      -290.41012471    837.674462   -0.02360   -0.07047    1.53391    1     10.7     22.4
    3      0.323D-03      0.621D-04      -290.41031318    837.345763   -0.02204   -0.07028    1.50819    2     11.0     33.4
    4      0.161D-03      0.308D-04      -290.41034406    837.353319   -0.02274   -0.07007    1.52136    3     10.5     43.8
    5      0.659D-04      0.139D-04      -290.41035124    837.384170   -0.02195   -0.06987    1.51382    4     10.2     54.1
    6      0.505D-04      0.486D-05      -290.41035292    837.359785   -0.02171   -0.06965    1.51435    5     10.2     64.3
    7      0.143D-04      0.130D-05      -290.41035314    837.363153   -0.02171   -0.06968    1.51411    6     10.2     74.5
    8      0.392D-05      0.573D-06      -290.41035317    837.361850   -0.02160   -0.06964    1.51406    7     10.0     84.6
    9      0.155D-05      0.236D-06      -290.41035318    837.361819   -0.02160   -0.06963    1.51406    7     10.1     94.7
   10      0.612D-06      0.120D-06      -290.41035318    837.361821   -0.02159   -0.06964    1.51406    8      9.5    104.1
   11      0.207D-06      0.583D-07      -290.41035318    837.361848   -0.02159   -0.06964    1.51407    8      9.4    113.5
   12      0.176D-06      0.312D-07      -290.41035318    837.361826   -0.02159   -0.06964    1.51407    8      9.1    122.6
   13      0.563D-07      0.141D-07      -290.41035318    837.361830   -0.02159   -0.06964    1.51407    8      9.0    131.7
   14      0.302D-07      0.547D-08      -290.41035318    837.361834   -0.02159   -0.06964    1.51407    9      8.7    140.4

 Final alpha occupancy:  28
 Final beta  occupancy:  27

 !UKS STATE  1.1 Energy              -290.410353184656
 Nuclear energy                       289.61701813
 One-electron energy                 -963.32653459
 Two-electron energy                  418.68091678
 Density functional                   -35.38175350     B88=-42.03752536 DIRAC=-37.80039116 LYP= -1.77197599 VWN5= -3.44949157
 Virial quotient                       -1.00370064
 !UKS STATE  1.1 Dipole moment         -0.02159377    -0.06964054     1.51407060
 Dipole moment /Debye                  -0.05488230    -0.17699700     3.84813156

 Orbital energies for positive spin:

         1.1          2.1          3.1          4.1          5.1          6.1          7.1          8.1          9.1         10.1
    -14.327897   -10.193876   -10.191978   -10.184336   -10.178106   -10.178031   -10.171655    -0.912518    -0.833909    -0.751925

        11.1         12.1         13.1         14.1         15.1         16.1         17.1         18.1         19.1         20.1
     -0.707116    -0.656658    -0.642295    -0.543857    -0.470293    -0.470096    -0.445688    -0.428967    -0.403776    -0.397531

        21.1         22.1         23.1         24.1         25.1         26.1         27.1         28.1         29.1         30.1
     -0.380927    -0.377708    -0.363726    -0.355875    -0.355011    -0.351111    -0.348049    -0.196821     0.005847     0.006685

 Orbital energies for negative spin:

         1.1          2.1          3.1          4.1          5.1          6.1          7.1          8.1          9.1         10.1
    -14.327938   -10.192304   -10.185073   -10.178881   -10.178807   -10.177987   -10.171538    -0.911576    -0.818644    -0.748673

        11.1         12.1         13.1         14.1         15.1         16.1         17.1         18.1         19.1         20.1
     -0.704871    -0.648847    -0.638465    -0.528342    -0.466605    -0.460057    -0.439853    -0.421603    -0.398067    -0.395904

        21.1         22.1         23.1         24.1         25.1         26.1         27.1         28.1         29.1         30.1
     -0.379550    -0.377109    -0.359739    -0.354970    -0.353820    -0.347866    -0.343455    -0.062480     0.007085     0.008133


 HOMO     28.1    -0.196821 =      -5.3558eV
 LUMO    -28.1    -0.062480 =      -1.7002eV
 LUMO-HOMO         0.134340 =       3.6556eV

 EXPECTATION VALUE OF S**2:             0.75423310

 Occupation number threshold for pseudo-canonical orbitals: 1.9990 (occupied), 0.0010 (virtual)

 Number of pseudo-canonical occupied orbitals per symmetry:   27
 Number of active natural orbitals per symmetry:               1

 Natural orbitals saved to record    2206.2 (Orbital set 3)

 Orbital spaces for UNO-CAS (Min. occupation: 0.020  Max. occupation: 1.980):

 Closed:       27
 Active:        1


 **********************************************************************************************************************************
 DATASETS  * FILE   NREC   LENGTH (MB)   RECORD NAMES
              1      19       33.38       500      610      700      900      950      970     1001      129      960     1100   
                                          VAR    BASINP    GEOM    SYMINP    ZMAT    AOBASIS   BASIS     P2S    ABASIS      S 
                                         1400     1410     1200     1210     1080     1600     1650     1700     1800   
                                           T        V       H0       H01     AOSYM     SMH    MOLCAS    OPER     GRID   

              2      14       38.46       700     1000      520     2100     1800     2200      520(1)  2201     2202     1001   
                                         GEOM     BASIS   MCVARS     RHF     GRID      UKS    MCVARS     UKS      UKS     BASIS   
                                         2203     2204     2205     2206   
                                          UKS      UKS      UKS      UKS  

 PROGRAMS   *        TOTAL   UKS-SCF   UKS-SCF    DF-UKS    DF-UKS       INT    DF-UKS      OPTG    DF-UKS      OPTG    DF-UKS
 CPU TIMES  *       622.27    140.47     89.06    130.52      5.19      0.32      2.66    133.45     23.63     90.42      2.98
 REAL TIME  *       631.35 SEC
 DISK USED  *        71.93 MB (local),      287.72 MB (total)
 SF USED    *        33.08 MB
 GA USED    *         3.27 MB       (max)       2.25 MB       (current)
 **********************************************************************************************************************************

 UB3LYP/TZVP//CF-UKS/SVP energy=   -290.410353184656

         UKS-SCF         UKS-SCF          DF-UKS          DF-UKS          DF-UKS    OPTG(DF-UKS)          DF-UKS    OPTG(DF-UKS)
   -290.41035318   -290.23497242   -290.23525225   -290.19522817   -289.86919401   -289.91664843   -289.91553544   -289.87018382
 **********************************************************************************************************************************
 Molpro calculation terminated
