
 Primary working directories    : /mnt/storage/home/lb17101/scratch/1379400/molpro.TPdKLdWEuq
 Secondary working directories  : /mnt/storage/home/lb17101/scratch/1379400/molpro.TPdKLdWEuq
 Wavefunction directory         : /mnt/storage/home/lb17101/optimizations/7/
 Main file repository           : /mnt/storage/home/lb17101/optimizations/7/

 id        : simonbennie

 Nodes                   nprocs
 compute073.bc4.acrc.priv    4

 Using customized tuning parameters: mindgm=1; mindgv=20; mindgc=4; mindgr=1; noblas=0; minvec=7
 default implementation of scratch files=sf  


 Variables initialized (924), CPU time= 0.00 sec
 memory,536,m
 
 geomtyp=xyz
 
 nosym
 noorient
 gdirect
 angstrom
 
 geometry=input.xyz
 Including file /mnt/storage/home/lb17101/optimizations/7/input.xyz
 
 set,charge=0
 
 basis=svp
 df-hf
 {cf-uks,pbe;}
 {optg,method=slrf,maxiter=50;
 constraint,1.100,angstrom,bond,atoms=[H7,C1]
 constraint,2.400,angstrom,bond,atoms=[H7,C17]
 constraint,180,deg,angle,atoms=[C1,H7,C17]
 {slopt;}}
 {cf-uks,pbe0;}
 {optg,method=slrf,maxiter=20;
 constraint,1.100,angstrom,bond,atoms=[H7,C1]
 constraint,2.400,angstrom,bond,atoms=[H7,C17]
 constraint,180,deg,angle,atoms=[C1,H7,C17]
 {slopt;}}
 {cf-uks,pbe;}
 basis=tzvp
 {cf-uks,pbe;}
 {cf-uks,pbe0;}
 {uks,pbe0;}
 {uks,b3lyp;}
 Commands  initialized (760), CPU time= 0.01 sec, 616 directives.
 Default parameters read. Elapsed time= 0.06 sec

 Checking input...
 Passed
1


                                         ***  PROGRAM SYSTEM MOLPRO  ***
                                       Copyright, TTI GmbH Stuttgart, 2015
                                    Version 2018.1 linked Oct 16 2018 14:32:03


 **********************************************************************************************************************************
 LABEL *                                                                                 
  64 bit mpp version                                                                     DATE: 10-Nov-18          TIME: 00:35:26  
 **********************************************************************************************************************************

 SHA1:             d673ad554fd0a1ae99daa449513f8b88cca0f763
 **********************************************************************************************************************************
 SETTING GEOMTYP        =    XYZ

 Variable memory set to  536000000 words,  buffer space 

 ZSYMEL=NOSYM
 ZUNIT=ANG

 SETTING CHARGE         =     0.00000000D+00                                  
 SETTING BASIS          =    SVP


 Recomputing integrals since basis changed


 Using spherical harmonics

 Library entry C      S def2-SVP             selected for orbital group  1
 Library entry C      P def2-SVP             selected for orbital group  1
 Library entry C      D def2-SVP             selected for orbital group  1
 Library entry H      S def2-SVP             selected for orbital group  2
 Library entry H      P def2-SVP             selected for orbital group  2
 Library entry N      S def2-SVP             selected for orbital group  8
 Library entry N      P def2-SVP             selected for orbital group  8
 Library entry N      D def2-SVP             selected for orbital group  8


 PROGRAM * SEWARD (Integral evaluation for generally contracted gaussian basis sets)     Author: Roland Lindh, 1990

 Geometry written to block  1 of record 700


 Point group  C1  



 ATOMIC COORDINATES

 NR  ATOM    CHARGE       X              Y              Z

   1  C0      6.00  -15.316925113    4.888078256   -0.767052243
   2  C1      6.00  -12.509659000    4.644678157   -1.070390898
   3  H2      1.00  -16.346413757    3.266393148   -1.611352563
   4  H3      1.00  -16.060070410    6.659028964   -1.611398073
   5  H4      1.00  -15.867278179    4.939078915    1.276322047
   6  C5      6.00  -10.928940534    6.951542313   -0.623723353
   7  C6      6.00  -11.391119286    2.048705088   -0.721610816
   8  H7      1.00  -12.064532823    4.811752729   -5.409853371
   9  H8      1.00  -11.858594393    8.684827474   -1.350707090
  10  H9      1.00   -9.024283094    6.819447243   -1.489688335
  11  H10     1.00  -10.607924720    7.281743571    1.443810111
  12  H11     1.00  -12.564834386    0.660594741   -1.783784990
  13  H12     1.00  -11.651586181    1.480313562    1.306983776
  14  C13     6.00   -8.601100060    1.708416740   -1.418172702
  15  H14     1.00   -8.227734962    2.222762924   -3.417429662
  16  H15     1.00   -8.014177585   -0.286184374   -1.167620133
  17  H16     1.00   -7.341877758    2.878713852   -0.220497868
  18  C17     6.00  -11.862435348    4.823883071   -7.478668950
  19  N18     7.00  -11.637187328    4.827537747   -9.674272220

 Bond lengths in Bohr (Angstrom)

 1-2  2.834078506  1-3  2.098226034  1-4  2.097963589  1-5  2.116806098  2-6  2.831926023
     ( 1.499729759)     ( 1.110333401)     ( 1.110194521)     ( 1.120165547)     ( 1.498590715)

  2- 7  2.848131811   6- 9  2.096911801   6-10  2.096440894   6-11  2.118201749   7-12  2.105391044
       ( 1.507166448)       ( 1.109637938)       ( 1.109388745)       ( 1.120904093)       ( 1.114124961)

  7-13  2.122759513   7-14  2.895721310   8-18  2.078698735  14-15  2.097851731  14-16  2.094203473
       ( 1.123315958)       ( 1.532349726)       ( 1.099999999)       ( 1.110135328)       ( 1.108204753)

 14-17  2.095151819  18-19  2.207130206
       ( 1.108706596)       ( 1.167963007)

 Bond angles

  1-2-6  117.77855146   1-2-7  117.01248036   2-1-3  112.12069309   2-1-4  112.35172672

  2- 1- 5  111.27971143   2- 6- 9  111.78876771   2- 6-10  112.99419310   2- 6-11  111.44020680

  2- 7-12  108.67630802   2- 7-13  108.23366762   2- 7-14  117.13216098   3- 1- 4  108.46167851

  3- 1- 5  106.22951316   4- 1- 5  106.02553003   6- 2- 7  120.26137390   7-14-15  111.83345378

  7-14-16  110.68168460   7-14-17  112.08183597   8-18-19  179.63297686   9- 6-10  108.15949919

  9- 6-11  106.06536737  10- 6-11  105.98101855  12- 7-13  103.72019587  12- 7-14  109.77304899

 13- 7-14  108.45956817  15-14-16  107.31683745  15-14-17  107.50922167  16-14-17  107.16800153

 NUCLEAR CHARGE:                   55
 NUMBER OF PRIMITIVE AOS:         259
 NUMBER OF SYMMETRY AOS:          252
 NUMBER OF CONTRACTIONS:          158   (  158A   )
 NUMBER OF CORE ORBITALS:           7   (    7A   )
 NUMBER OF VALENCE ORBITALS:       40   (   40A   )


 NUCLEAR REPULSION ENERGY  275.70817015


 Eigenvalues of metric

         1 0.193E-02 0.310E-02 0.390E-02 0.405E-02 0.652E-02 0.110E-01 0.215E-01 0.232E-01


 OPERATOR DM      FOR CENTER  0  COORDINATES:    0.000000    0.000000    0.000000


 **********************************************************************************************************************************
 DATASETS  * FILE   NREC   LENGTH (MB)   RECORD NAMES
              1      18       31.21       500      610      700      900      950      970     1000      129      960     1100   
                                          VAR    BASINP    GEOM    SYMINP    ZMAT    AOBASIS   BASIS     P2S    ABASIS      S 
                                         1400     1410     1200     1210     1080     1600     1650     1700   
                                           T        V       H0       H01     AOSYM     SMH    MOLCAS    OPER   

 PROGRAMS   *        TOTAL       INT
 CPU TIMES  *         0.43      0.32
 REAL TIME  *         0.75 SEC
 DISK USED  *        31.83 MB (local),      127.32 MB (total)
 GA USED    *         0.00 MB       (max)       0.00 MB       (current)
 **********************************************************************************************************************************


 PROGRAM * RHF-SCF (OPEN SHELL)       Authors: W. Meyer, H.-J. Werner


 NUMBER OF ELECTRONS:      28+   27-    SPACE SYMMETRY=1    SPIN SYMMETRY: Doublet 
 CONVERGENCE THRESHOLDS:    1.00E-06 (Density)    1.00E-07 (Energy)
 INTEGRAL THRESHOLDS:       1.00E-11 (Initial)    1.00E-11 (Final)
 MAX. NUMBER OF ITERATIONS:       60
 INTERPOLATION TYPE:            DIIS
 INTERPOLATION STEPS:              2 (START)      1 (STEP)
 LEVEL SHIFTS:                 -0.60 (CLOSED) -0.30 (OPEN) 




 Basis set DEF2-SVP/JKFIT generated.     Number of basis functions:   560 

 Orbital guess generated from atomic densities. Full valence occupancy:   28
 Using density fitting in orbital guess

 Coulomb and exchange fitting
 Thresholds for fitting:       THRAO_COUL= 1.0D-14    THRAO_EXCH= 1.0D-12    THRMO= 1.0D-11    THRPROD= 1.0D-11    THRASM= 1.0D-11
                               THR2HLF=    1.0D-11

 Molecular orbital dump at record        2100.2

 Initial alpha occupancy:  28
 Initial beta  occupancy:  27
 Wave function symmetry:    1

 ITERATION   DDIFF            GRAD            ENERGY        2-EL.EN.            DIPOLE MOMENTS         DIIS   CPU(IT)  CPU(TOT)  ORB.
    1      0.000D+00      0.000D+00      -288.25653108    743.427118   -0.20611   -0.03282    2.24955    0      0.2      0.5     start
    2      0.000D+00      0.404D-02      -288.33743391    740.463678   -0.12968   -0.03912    1.76432    1      0.2      0.7     diag,B
    3      0.326D-02      0.159D-02      -288.35408585    740.537927   -0.13062   -0.04387    1.76760    2      0.2      0.9     diag,B
    4      0.172D-02      0.766D-03      -288.36085477    740.506910   -0.11869   -0.04677    1.67918    3      0.2      1.1     diag,B
    5      0.163D-02      0.217D-03      -288.36155294    740.466718   -0.11622   -0.04505    1.65893    4      0.2      1.3     diag,B
    6      0.673D-03      0.760D-04      -288.36165427    740.440907   -0.11505   -0.04372    1.64661    5      0.2      1.5     diag,B
    7      0.303D-03      0.227D-04      -288.36166362    740.433141   -0.11464   -0.04323    1.64196    6      0.2      1.7     fixocc
    8      0.786D-04      0.773D-05      -288.36166489    740.432495   -0.11448   -0.04309    1.64001    7      0.2      1.9     diag,B
    9      0.316D-04      0.272D-05      -288.36166507    740.432757   -0.11445   -0.04307    1.63943    8      0.2      2.1     diag,B
   10      0.174D-04      0.804D-06      -288.36166509    740.432894   -0.11445   -0.04308    1.63939    9      0.2      2.3     orth
   11      0.584D-05      0.243D-06      -288.36166509    740.432896   -0.11445   -0.04308    1.63942    9      0.2      2.5     diag,B
   12      0.155D-05      0.737D-07      -288.36166509    740.432889   -0.11445   -0.04308    1.63944    9      0.2      2.7     diag,B
   13      0.311D-06      0.320D-07      -288.36166509    740.432885   -0.11445   -0.04308    1.63944    0      0.2      2.9     orth

 Final alpha occupancy:  28
 Final beta  occupancy:  27

 !RHF STATE  1.1 Energy              -288.361665089846
 Nuclear energy                       275.70817015
 One-electron energy                 -934.28627784
 Two-electron energy                  370.21644260
 Virial quotient                       -1.00680784
 !RHF STATE  1.1 Dipole moment         -0.11445169    -0.04308226     1.63943652
 Dipole moment /Debye                  -0.29088811    -0.10949701     4.16675908

 Orbital energies:

         1.1          2.1          3.1          4.1          5.1          6.1          7.1          8.1          9.1         10.1
    -15.592641   -11.291335   -11.246750   -11.244969   -11.243934   -11.242577   -11.239168    -1.205717    -1.088407    -0.997104

        11.1         12.1         13.1         14.1         15.1         16.1         17.1         18.1         19.1         20.1
     -0.940315    -0.861368    -0.781930    -0.724005    -0.631077    -0.624398    -0.598168    -0.575224    -0.565807    -0.547432

        21.1         22.1         23.1         24.1         25.1         26.1         27.1         28.1         29.1         30.1
     -0.545110    -0.525552    -0.501852    -0.488453    -0.484725    -0.481223    -0.480751    -0.353407     0.152478     0.161665


 HOMO     28.1    -0.353407 =      -9.6167eV
 LUMO     29.1     0.152478 =       4.1492eV
 LUMO-HOMO         0.505885 =      13.7658eV


 **********************************************************************************************************************************
 DATASETS  * FILE   NREC   LENGTH (MB)   RECORD NAMES
              1      18       31.21       500      610      700      900      950      970     1000      129      960     1100   
                                          VAR    BASINP    GEOM    SYMINP    ZMAT    AOBASIS   BASIS     P2S    ABASIS      S 
                                         1400     1410     1200     1210     1080     1600     1650     1700   
                                           T        V       H0       H01     AOSYM     SMH    MOLCAS    OPER   

              2       4        3.88       700     1000      520     2100   
                                         GEOM     BASIS   MCVARS     RHF  

 PROGRAMS   *        TOTAL     DF-HF       INT
 CPU TIMES  *         3.36      2.93      0.32
 REAL TIME  *         3.87 SEC
 DISK USED  *        38.78 MB (local),      155.11 MB (total)
 SF USED    *        32.62 MB
 GA USED    *         3.27 MB       (max)       0.00 MB       (current)
 **********************************************************************************************************************************

 Density functional group PBE=PBEX+PBEC
 Functional: PBEX(Automatically generated (new) PBEX)                          Gradient terms: 1
 Functional: PBEC(Automatically generated (new) PBEC)                          Gradient terms: 1
 Use libxcgrid:  F
 Use grid at  1800.2

 Functional: PBEX                      Factor:  1.0000
 Functional: PBEC                      Factor:  1.0000

 Generated new metagrid on record  1800.2 with target accuracy 1.0D-06 and 65784 points in CPU time    0.4
 Computed new grid on record 1800.1 in CPU time    0.5
  129907 words reserved for DFT integration

 PROGRAM * UKS-SCF (Unrestricted Kohn-Sham)     Authors: W. Meyer, H.-J. Werner, P.J. Knowles, 1993

 NUMBER OF ELECTRONS:      28+   27-    SPACE SYMMETRY=1    SPIN SYMMETRY: Doublet 
 CONVERGENCE THRESHOLDS:    1.00E-06 (Density)    1.00E-06 (Energy)
 INTEGRAL THRESHOLDS:       1.00E-11 (Initial)    1.00E-11 (Final)
 MAX. NUMBER OF ITERATIONS:       60
 INTERPOLATION TYPE:            DIIS
 INTERPOLATION STEPS:              2 (START)      1 (STEP)
 LEVEL SHIFTS:                 -0.20 (ALPHA)  -0.20 (BETA) 



 Use fine grid record 1800.2 for energy threshold  1.0D-06

 Basis set DEF2-SVP/JFIT generated.      Number of basis functions:   475 
 Coulomb fitting
 Screening thresholds:    THRAO_COUL= 1.0D-14    THRAO= 1.0D-12    THROV= 1.0D-12

 Reserved 1 MW to cache 100.0% of significant integrals (4 MW global). CPU: 0.1 sec

 Molecular orbitals read from record     2100.2  Type=RHF/CANONICAL (state 1.1)

 Molecular orbital dump at record        2200.2

 Initial alpha occupation  28
 Initial beta  occupation  27

 ITERATION    DDIFF          GRAD             ENERGY        2-EL.EN.            DIPOLE MOMENTS         DIIS  CPU(IT) CPU(TOT)
    1      0.000D+00      0.000D+00      -289.87050375    823.934242   -0.11445   -0.04308    1.63944    0      0.2      0.3
    2      0.429D-02      0.217D-02      -289.91259013    827.062708   -0.10690   -0.04937    1.55566    1      0.2      0.5
    3      0.153D-02      0.457D-03      -289.91660101    825.696081   -0.10381   -0.04674    1.54245    2      0.2      0.6
    4      0.834D-03      0.208D-03      -289.91769905    826.227713   -0.10385   -0.05030    1.51656    3      0.2      0.8
    5      0.337D-03      0.928D-04      -289.91786070    826.157874   -0.10686   -0.04941    1.56732    4      0.2      1.0
    6      0.190D-03      0.897D-04      -289.91797801    826.078895   -0.10312   -0.04981    1.53883    5      0.2      1.1
    7      0.959D-04      0.220D-04      -289.91799471    826.097063   -0.10419   -0.05056    1.54440    6      0.2      1.3
    8      0.371D-04      0.875D-05      -289.91799683    826.094263   -0.10355   -0.05059    1.54414    7      0.2      1.5
    9      0.129D-04      0.279D-05      -289.91799707    826.096370   -0.10363   -0.05055    1.54438    8      0.2      1.6
   10      0.593D-05      0.130D-05      -289.91799711    826.094738   -0.10360   -0.05061    1.54427    8      0.4      2.0
   11      0.233D-05      0.298D-06      -289.91799711    826.094855   -0.10360   -0.05062    1.54421    8      0.2      2.2
   12      0.668D-06      0.111D-06      -289.91799712    826.094924   -0.10361   -0.05061    1.54421    8      0.2      2.3
   13      0.420D-06      0.682D-07      -289.91799712    826.094860   -0.10360   -0.05061    1.54419    7      0.2      2.5

 Final alpha occupancy:  28
 Final beta  occupancy:  27

 !UKS STATE  1.1 Energy              -289.917997115509
 Nuclear energy                       275.70817015
 One-electron energy                 -935.39562354
 Two-electron energy                  413.04742977
 Density functional                   -43.27797350     PBEX=-41.51503390 PBEC= -1.76293960
 Virial quotient                       -1.01214346
 !UKS STATE  1.1 Dipole moment         -0.10360472    -0.05061141     1.54418668
 Dipole moment /Debye                  -0.26331970    -0.12863294     3.92467397

 Orbital energies for positive spin:

         1.1          2.1          3.1          4.1          5.1          6.1          7.1          8.1          9.1         10.1
    -14.001646    -9.936594    -9.924487    -9.912447    -9.907742    -9.906695    -9.901996    -0.811440    -0.743548    -0.670299

        11.1         12.1         13.1         14.1         15.1         16.1         17.1         18.1         19.1         20.1
     -0.629061    -0.571142    -0.522383    -0.480687    -0.418081    -0.416680    -0.394820    -0.376360    -0.351639    -0.348992

        21.1         22.1         23.1         24.1         25.1         26.1         27.1         28.1         29.1         30.1
     -0.332703    -0.317068    -0.310681    -0.308824    -0.308464    -0.305407    -0.303193    -0.161479    -0.017647    -0.014435

 Orbital energies for negative spin:

         1.1          2.1          3.1          4.1          5.1          6.1          7.1          8.1          9.1         10.1
    -14.001645    -9.935992    -9.913073    -9.912263    -9.908386    -9.907369    -9.901869    -0.811127    -0.731794    -0.667411

        11.1         12.1         13.1         14.1         15.1         16.1         17.1         18.1         19.1         20.1
     -0.626776    -0.568035    -0.519294    -0.469213    -0.413309    -0.409254    -0.389743    -0.370902    -0.347691    -0.347279

        21.1         22.1         23.1         24.1         25.1         26.1         27.1         28.1         29.1         30.1
     -0.331599    -0.313815    -0.310378    -0.308083    -0.308056    -0.302630    -0.299344    -0.096959    -0.016958    -0.013646


 HOMO     28.1    -0.161479 =      -4.3941eV
 LUMO    -28.1    -0.096959 =      -2.6384eV
 LUMO-HOMO         0.064520 =       1.7557eV

 EXPECTATION VALUE OF S**2:             0.75315631

 Occupation number threshold for pseudo-canonical orbitals: 1.9990 (occupied), 0.0010 (virtual)

 Number of pseudo-canonical occupied orbitals per symmetry:   27
 Number of active natural orbitals per symmetry:               1

 Natural orbitals saved to record    2200.2 (Orbital set 3)

 Orbital spaces for UNO-CAS (Min. occupation: 0.020  Max. occupation: 1.980):

 Closed:       27
 Active:        1


 **********************************************************************************************************************************
 DATASETS  * FILE   NREC   LENGTH (MB)   RECORD NAMES
              1      19       31.21       500      610      700      900      950      970     1000      129      960     1100   
                                          VAR    BASINP    GEOM    SYMINP    ZMAT    AOBASIS   BASIS     P2S    ABASIS      S 
                                         1400     1410     1200     1210     1080     1600     1650     1700     1800   
                                           T        V       H0       H01     AOSYM     SMH    MOLCAS    OPER     GRID   

              2       6        7.61       700     1000      520     2100     1800     2200   
                                         GEOM     BASIS   MCVARS     RHF     GRID      UKS  

 PROGRAMS   *        TOTAL    DF-UKS     DF-HF       INT
 CPU TIMES  *         6.41      3.05      2.93      0.32
 REAL TIME  *         7.07 SEC
 DISK USED  *        38.89 MB (local),      155.54 MB (total)
 SF USED    *        32.62 MB
 GA USED    *         3.27 MB       (max)       2.17 MB       (current)
 **********************************************************************************************************************************


 PROGRAM * OPT (Geometry optimization)     Authors: F. Eckert and H.-J. Werner


 BFGS update of hessian


********** USER DEFINED INT/FIX/CONSTRAINTS ****************

List of primitive internal coordinates

     N      Name     Type   Natoms   Atom list

     1    Bo0001     Bond        2      H7   C1  
     2    Bo0002     Bond        2      H7   C17 
     3    An0001     Angle       3      C1   H7   C17 

List of user defined internal/fixed coordinates and constraints

- - - - - - - - - - - - - - - - - - - - - - - - - - - - - - - - - 
    N      Name   Type      Pname     Coeff       Value   Unit
- - - - - - - - - - - - - - - - - - - - - - - - - - - - - - - - - 
    1    Cns001    Con     Bo0001     1.000     1.10000 Angstrom
- - - - - - - - - - - - - - - - - - - - - - - - - - - - - - - - - 
    2    Cns002    Con     Bo0002     1.000     2.40000 Angstrom
- - - - - - - - - - - - - - - - - - - - - - - - - - - - - - - - - 
    3    Cns003    Con     An0001     1.000   180.00000   Degree
- - - - - - - - - - - - - - - - - - - - - - - - - - - - - - - - - 


******************************************************************



 *** Long output written to logfile /mnt/storage/home/lb17101/optimizations/7/7_1.10_2.40.log ***


 Geometry optimization using default procedure for command CF-UKS-SCF

 Geometry written to block  1 of record 700

 SLAPAF optimizer by R. Lindh and Ignacio F. Galvan entered

 Constraints section
ConstraintsConstraintsConstraintsConstraintsConstraintsConstraintsConstraintsConstraintsConstraintsConstraints
ConstraintsConstraintsConstraintsConstraintsConstraintsConstraintsConstraintsConstraintsConstraintsConstraints
Constraints                                                                                        Constraints
Constraints                                 C O N S T R A I N T S                                  Constraints
Constraints                                                                                        Constraints

************************************************************************************************************************
BO0001 = BOND       H7    C1
BO0002 = BOND       H7    C17
AN0001 = ANGLE      C1    H7    C17
VALUES
BO0001 =      1.10000000 ANGSTROM
BO0002 =      2.40000000 ANGSTROM
AN0001 =    180.00000000 DEGREE
************************************************************************************************************************


 *************************************************************
 * Values of the primitive constraints                       *
 *************************************************************
 BO0001   : Bond Length=  2.310086 / Angstrom  4.365431 / bohr
 BO0002   : Bond Length=  1.100000 / Angstrom  2.078699 / bohr
  Valence angle close to end in range of definition
 AN0001   : Angle=      178.1204   / Degree    3.108788 / rad

 *******************************************
 * Values of the constraints   / au or rad *
 *******************************************
   Label        C         C0
 Cns001      4.365431  2.078699
 Cns002      2.078699  4.535343
 Cns003      3.108788  3.141593


 ITER.   ENERGY(OLD)    ENERGY(NEW)      DE          GRADMAX     GRADNORM    GRADRMS     STEPMAX     STEPLEN     STEPRMS   CPU-time
   1  -289.91799712  -289.91617740     0.00181971  0.00120714  0.00190236  0.00025197  0.20511513  0.41726479  0.00732043      3.66

 Constraints section
ConstraintsConstraintsConstraintsConstraintsConstraintsConstraintsConstraintsConstraintsConstraintsConstraints
ConstraintsConstraintsConstraintsConstraintsConstraintsConstraintsConstraintsConstraintsConstraintsConstraints
Constraints                                                                                        Constraints
Constraints                                 C O N S T R A I N T S                                  Constraints
Constraints                                                                                        Constraints

************************************************************************************************************************
BO0001 = BOND       H7    C1
BO0002 = BOND       H7    C17
AN0001 = ANGLE      C1    H7    C17
VALUES
BO0001 =      1.10000000 ANGSTROM
BO0002 =      2.40000000 ANGSTROM
AN0001 =    180.00000000 DEGREE
************************************************************************************************************************


 *************************************************************
 * Values of the primitive constraints                       *
 *************************************************************
 BO0001   : Bond Length=  2.256007 / Angstrom  4.263235 / bohr
 BO0002   : Bond Length=  1.158098 / Angstrom  2.188488 / bohr
  Valence angle close to end in range of definition
 AN0001   : Angle=      177.8959   / Degree    3.104869 / rad

 *******************************************
 * Values of the constraints   / au or rad *
 *******************************************
   Label        C         C0
 Cns001      4.263235  2.078699
 Cns002      2.188488  4.535343
 Cns003      3.104869  3.141593

   2  -289.91617740  -289.91056108     0.00561633  0.04955681  0.06093589  0.00807116  0.55574905  1.22430489  0.02147903      7.58

 Constraints section
ConstraintsConstraintsConstraintsConstraintsConstraintsConstraintsConstraintsConstraintsConstraintsConstraints
ConstraintsConstraintsConstraintsConstraintsConstraintsConstraintsConstraintsConstraintsConstraintsConstraints
Constraints                                                                                        Constraints
Constraints                                 C O N S T R A I N T S                                  Constraints
Constraints                                                                                        Constraints

************************************************************************************************************************
BO0001 = BOND       H7    C1
BO0002 = BOND       H7    C17
AN0001 = ANGLE      C1    H7    C17
VALUES
BO0001 =      1.10000000 ANGSTROM
BO0002 =      2.40000000 ANGSTROM
AN0001 =    180.00000000 DEGREE
************************************************************************************************************************


 *************************************************************
 * Values of the primitive constraints                       *
 *************************************************************
 BO0001   : Bond Length=  2.201928 / Angstrom  4.161040 / bohr
 BO0002   : Bond Length=  1.216195 / Angstrom  2.298276 / bohr
  Valence angle close to end in range of definition
 AN0001   : Angle=      177.8198   / Degree    3.103542 / rad

 *******************************************
 * Values of the constraints   / au or rad *
 *******************************************
   Label        C         C0
 Cns001      4.161040  2.078699
 Cns002      2.298276  4.535343
 Cns003      3.103542  3.141593

   3  -289.91056108  -289.89129569     0.01926539  0.04850790  0.06445790  0.00853766  0.28299285  0.65569398  0.01150340     11.81

 Constraints section
ConstraintsConstraintsConstraintsConstraintsConstraintsConstraintsConstraintsConstraintsConstraintsConstraints
ConstraintsConstraintsConstraintsConstraintsConstraintsConstraintsConstraintsConstraintsConstraintsConstraints
Constraints                                                                                        Constraints
Constraints                                 C O N S T R A I N T S                                  Constraints
Constraints                                                                                        Constraints

************************************************************************************************************************
BO0001 = BOND       H7    C1
BO0002 = BOND       H7    C17
AN0001 = ANGLE      C1    H7    C17
VALUES
BO0001 =      1.10000000 ANGSTROM
BO0002 =      2.40000000 ANGSTROM
AN0001 =    180.00000000 DEGREE
************************************************************************************************************************


 *************************************************************
 * Values of the primitive constraints                       *
 *************************************************************
 BO0001   : Bond Length=  2.050748 / Angstrom  3.875351 / bohr
 BO0002   : Bond Length=  1.378609 / Angstrom  2.605193 / bohr
  Valence angle close to end in range of definition
 AN0001   : Angle=      178.0345   / Degree    3.107289 / rad

 *******************************************
 * Values of the constraints   / au or rad *
 *******************************************
   Label        C         C0
 Cns001      3.875351  2.078699
 Cns002      2.605193  4.535343
 Cns003      3.107289  3.141593

   4  -289.89129569  -289.87860660     0.01268909  0.08436187  0.11051498  0.01463807  0.12805818  0.22214885  0.00389735     15.61

 Constraints section
ConstraintsConstraintsConstraintsConstraintsConstraintsConstraintsConstraintsConstraintsConstraintsConstraints
ConstraintsConstraintsConstraintsConstraintsConstraintsConstraintsConstraintsConstraintsConstraintsConstraints
Constraints                                                                                        Constraints
Constraints                                 C O N S T R A I N T S                                  Constraints
Constraints                                                                                        Constraints

************************************************************************************************************************
BO0001 = BOND       H7    C1
BO0002 = BOND       H7    C17
AN0001 = ANGLE      C1    H7    C17
VALUES
BO0001 =      1.10000000 ANGSTROM
BO0002 =      2.40000000 ANGSTROM
AN0001 =    180.00000000 DEGREE
************************************************************************************************************************


 *************************************************************
 * Values of the primitive constraints                       *
 *************************************************************
 BO0001   : Bond Length=  1.980040 / Angstrom  3.741733 / bohr
 BO0002   : Bond Length=  1.454571 / Angstrom  2.748740 / bohr
  Valence angle close to end in range of definition
 AN0001   : Angle=      178.1799   / Degree    3.109825 / rad

 *******************************************
 * Values of the constraints   / au or rad *
 *******************************************
   Label        C         C0
 Cns001      3.741733  2.078699
 Cns002      2.748740  4.535343
 Cns003      3.109825  3.141593

   5  -289.87860660  -289.86150702     0.01709958  0.16438331  0.20048777  0.02655525  0.09740204  0.22065162  0.00387108     19.43

 Constraints section
ConstraintsConstraintsConstraintsConstraintsConstraintsConstraintsConstraintsConstraintsConstraintsConstraints
ConstraintsConstraintsConstraintsConstraintsConstraintsConstraintsConstraintsConstraintsConstraintsConstraints
Constraints                                                                                        Constraints
Constraints                                 C O N S T R A I N T S                                  Constraints
Constraints                                                                                        Constraints

************************************************************************************************************************
BO0001 = BOND       H7    C1
BO0002 = BOND       H7    C17
AN0001 = ANGLE      C1    H7    C17
VALUES
BO0001 =      1.10000000 ANGSTROM
BO0002 =      2.40000000 ANGSTROM
AN0001 =    180.00000000 DEGREE
************************************************************************************************************************


 *************************************************************
 * Values of the primitive constraints                       *
 *************************************************************
 BO0001   : Bond Length=  1.925962 / Angstrom  3.639540 / bohr
 BO0002   : Bond Length=  1.512667 / Angstrom  2.858525 / bohr
  Valence angle close to end in range of definition
 AN0001   : Angle=      178.2865   / Degree    3.111686 / rad

 *******************************************
 * Values of the constraints   / au or rad *
 *******************************************
   Label        C         C0
 Cns001      3.639540  2.078699
 Cns002      2.858525  4.535343
 Cns003      3.111686  3.141593

   6  -289.86150702  -289.84840551     0.01310151  0.27533732  0.35076227  0.04645960  0.32508182  0.79860499  0.01401061     23.61

 Constraints section
ConstraintsConstraintsConstraintsConstraintsConstraintsConstraintsConstraintsConstraintsConstraintsConstraints
ConstraintsConstraintsConstraintsConstraintsConstraintsConstraintsConstraintsConstraintsConstraintsConstraints
Constraints                                                                                        Constraints
Constraints                                 C O N S T R A I N T S                                  Constraints
Constraints                                                                                        Constraints

************************************************************************************************************************
BO0001 = BOND       H7    C1
BO0002 = BOND       H7    C17
AN0001 = ANGLE      C1    H7    C17
VALUES
BO0001 =      1.10000000 ANGSTROM
BO0002 =      2.40000000 ANGSTROM
AN0001 =    180.00000000 DEGREE
************************************************************************************************************************


 *************************************************************
 * Values of the primitive constraints                       *
 *************************************************************
 BO0001   : Bond Length=  1.871884 / Angstrom  3.537348 / bohr
 BO0002   : Bond Length=  1.570762 / Angstrom  2.968311 / bohr
  Valence angle close to end in range of definition
 AN0001   : Angle=      178.2616   / Degree    3.111251 / rad

 *******************************************
 * Values of the constraints   / au or rad *
 *******************************************
   Label        C         C0
 Cns001      3.537348  2.078699
 Cns002      2.968311  4.535343
 Cns003      3.111251  3.141593

   7  -289.84840551  -289.82551572     0.02288979  0.32019146  0.41411378  0.05485071  0.13210784  0.19378302  0.00339970     27.37

 Constraints section
ConstraintsConstraintsConstraintsConstraintsConstraintsConstraintsConstraintsConstraintsConstraintsConstraints
ConstraintsConstraintsConstraintsConstraintsConstraintsConstraintsConstraintsConstraintsConstraintsConstraints
Constraints                                                                                        Constraints
Constraints                                 C O N S T R A I N T S                                  Constraints
Constraints                                                                                        Constraints

************************************************************************************************************************
BO0001 = BOND       H7    C1
BO0002 = BOND       H7    C17
AN0001 = ANGLE      C1    H7    C17
VALUES
BO0001 =      1.10000000 ANGSTROM
BO0002 =      2.40000000 ANGSTROM
AN0001 =    180.00000000 DEGREE
************************************************************************************************************************


 *************************************************************
 * Values of the primitive constraints                       *
 *************************************************************
 BO0001   : Bond Length=  1.797351 / Angstrom  3.396501 / bohr
 BO0002   : Bond Length=  1.650834 / Angstrom  3.119624 / bohr
  Valence angle close to end in range of definition
 AN0001   : Angle=      178.4123   / Degree    3.113883 / rad

 *******************************************
 * Values of the constraints   / au or rad *
 *******************************************
   Label        C         C0
 Cns001      3.396501  2.078699
 Cns002      3.119624  4.535343
 Cns003      3.113883  3.141593

   8  -289.82551572  -289.78549555     0.04002018  0.41914882  0.55708356  0.07378752  0.09473143  0.18624635  0.00326748     31.34

 Constraints section
ConstraintsConstraintsConstraintsConstraintsConstraintsConstraintsConstraintsConstraintsConstraintsConstraints
ConstraintsConstraintsConstraintsConstraintsConstraintsConstraintsConstraintsConstraintsConstraintsConstraints
Constraints                                                                                        Constraints
Constraints                                 C O N S T R A I N T S                                  Constraints
Constraints                                                                                        Constraints

************************************************************************************************************************
BO0001 = BOND       H7    C1
BO0002 = BOND       H7    C17
AN0001 = ANGLE      C1    H7    C17
VALUES
BO0001 =      1.10000000 ANGSTROM
BO0002 =      2.40000000 ANGSTROM
AN0001 =    180.00000000 DEGREE
************************************************************************************************************************


 *************************************************************
 * Values of the primitive constraints                       *
 *************************************************************
 BO0001   : Bond Length=  1.743274 / Angstrom  3.294310 / bohr
 BO0002   : Bond Length=  1.708929 / Angstrom  3.229407 / bohr
  Valence angle close to end in range of definition
 AN0001   : Angle=      178.5286   / Degree    3.115911 / rad

 *******************************************
 * Values of the constraints   / au or rad *
 *******************************************
   Label        C         C0
 Cns001      3.294310  2.078699
 Cns002      3.229407  4.535343
 Cns003      3.115911  3.141593

   9  -289.78549555  -289.82033430    -0.03483876  0.61546675  0.83880319  0.11110220  0.10237731  0.27299622  0.00478941     35.07

 Constraints section
ConstraintsConstraintsConstraintsConstraintsConstraintsConstraintsConstraintsConstraintsConstraintsConstraints
ConstraintsConstraintsConstraintsConstraintsConstraintsConstraintsConstraintsConstraintsConstraintsConstraints
Constraints                                                                                        Constraints
Constraints                                 C O N S T R A I N T S                                  Constraints
Constraints                                                                                        Constraints

************************************************************************************************************************
BO0001 = BOND       H7    C1
BO0002 = BOND       H7    C17
AN0001 = ANGLE      C1    H7    C17
VALUES
BO0001 =      1.10000000 ANGSTROM
BO0002 =      2.40000000 ANGSTROM
AN0001 =    180.00000000 DEGREE
************************************************************************************************************************


 *************************************************************
 * Values of the primitive constraints                       *
 *************************************************************
 BO0001   : Bond Length=  1.689197 / Angstrom  3.192120 / bohr
 BO0002   : Bond Length=  1.767023 / Angstrom  3.339190 / bohr
  Valence angle close to end in range of definition
 AN0001   : Angle=      178.6322   / Degree    3.117719 / rad

 *******************************************
 * Values of the constraints   / au or rad *
 *******************************************
   Label        C         C0
 Cns001      3.192120  2.078699
 Cns002      3.339190  4.535343
 Cns003      3.117719  3.141593

  10  -289.82033430  -289.83456679    -0.01423248  0.38526873  0.51625368  0.06837947  0.09845617  0.12414226  0.00217793     38.89

 Constraints section
ConstraintsConstraintsConstraintsConstraintsConstraintsConstraintsConstraintsConstraintsConstraintsConstraints
ConstraintsConstraintsConstraintsConstraintsConstraintsConstraintsConstraintsConstraintsConstraintsConstraints
Constraints                                                                                        Constraints
Constraints                                 C O N S T R A I N T S                                  Constraints
Constraints                                                                                        Constraints

************************************************************************************************************************
BO0001 = BOND       H7    C1
BO0002 = BOND       H7    C17
AN0001 = ANGLE      C1    H7    C17
VALUES
BO0001 =      1.10000000 ANGSTROM
BO0002 =      2.40000000 ANGSTROM
AN0001 =    180.00000000 DEGREE
************************************************************************************************************************


 *************************************************************
 * Values of the primitive constraints                       *
 *************************************************************
 BO0001   : Bond Length=  1.635121 / Angstrom  3.089931 / bohr
 BO0002   : Bond Length=  1.825118 / Angstrom  3.448973 / bohr
  Valence angle close to end in range of definition
 AN0001   : Angle=      178.7575   / Degree    3.119907 / rad

 *******************************************
 * Values of the constraints   / au or rad *
 *******************************************
   Label        C         C0
 Cns001      3.089931  2.078699
 Cns002      3.448973  4.535343
 Cns003      3.119907  3.141593

  11  -289.83456679  -289.84578457    -0.01121779  0.25943115  0.34421485  0.04559237  0.09853191  0.14206906  0.00249244     42.65

 Constraints section
ConstraintsConstraintsConstraintsConstraintsConstraintsConstraintsConstraintsConstraintsConstraintsConstraints
ConstraintsConstraintsConstraintsConstraintsConstraintsConstraintsConstraintsConstraintsConstraintsConstraints
Constraints                                                                                        Constraints
Constraints                                 C O N S T R A I N T S                                  Constraints
Constraints                                                                                        Constraints

************************************************************************************************************************
BO0001 = BOND       H7    C1
BO0002 = BOND       H7    C17
AN0001 = ANGLE      C1    H7    C17
VALUES
BO0001 =      1.10000000 ANGSTROM
BO0002 =      2.40000000 ANGSTROM
AN0001 =    180.00000000 DEGREE
************************************************************************************************************************


 *************************************************************
 * Values of the primitive constraints                       *
 *************************************************************
 BO0001   : Bond Length=  1.581044 / Angstrom  2.987741 / bohr
 BO0002   : Bond Length=  1.883212 / Angstrom  3.558756 / bohr
  Valence angle close to end in range of definition
 AN0001   : Angle=      178.8828   / Degree    3.122095 / rad

 *******************************************
 * Values of the constraints   / au or rad *
 *******************************************
   Label        C         C0
 Cns001      2.987741  2.078699
 Cns002      3.558756  4.535343
 Cns003      3.122095  3.141593

  12  -289.84578457  -289.84867587    -0.00289130  0.11894216  0.15954830  0.02113269  0.14203596  0.22964121  0.00402879     46.45

 Constraints section
ConstraintsConstraintsConstraintsConstraintsConstraintsConstraintsConstraintsConstraintsConstraintsConstraints
ConstraintsConstraintsConstraintsConstraintsConstraintsConstraintsConstraintsConstraintsConstraintsConstraints
Constraints                                                                                        Constraints
Constraints                                 C O N S T R A I N T S                                  Constraints
Constraints                                                                                        Constraints

************************************************************************************************************************
BO0001 = BOND       H7    C1
BO0002 = BOND       H7    C17
AN0001 = ANGLE      C1    H7    C17
VALUES
BO0001 =      1.10000000 ANGSTROM
BO0002 =      2.40000000 ANGSTROM
AN0001 =    180.00000000 DEGREE
************************************************************************************************************************


 *************************************************************
 * Values of the primitive constraints                       *
 *************************************************************
 BO0001   : Bond Length=  1.526968 / Angstrom  2.885552 / bohr
 BO0002   : Bond Length=  1.941307 / Angstrom  3.668538 / bohr
  Valence angle close to end in range of definition
 AN0001   : Angle=      179.0073   / Degree    3.124267 / rad

 *******************************************
 * Values of the constraints   / au or rad *
 *******************************************
   Label        C         C0
 Cns001      2.885552  2.078699
 Cns002      3.668538  4.535343
 Cns003      3.124267  3.141593

  13  -289.84867587  -289.84653667     0.00213920  0.05976716  0.08604748  0.01139727  0.21781491  0.58832496  0.01032149     50.36

 Constraints section
ConstraintsConstraintsConstraintsConstraintsConstraintsConstraintsConstraintsConstraintsConstraintsConstraints
ConstraintsConstraintsConstraintsConstraintsConstraintsConstraintsConstraintsConstraintsConstraintsConstraints
Constraints                                                                                        Constraints
Constraints                                 C O N S T R A I N T S                                  Constraints
Constraints                                                                                        Constraints

************************************************************************************************************************
BO0001 = BOND       H7    C1
BO0002 = BOND       H7    C17
AN0001 = ANGLE      C1    H7    C17
VALUES
BO0001 =      1.10000000 ANGSTROM
BO0002 =      2.40000000 ANGSTROM
AN0001 =    180.00000000 DEGREE
************************************************************************************************************************


 *************************************************************
 * Values of the primitive constraints                       *
 *************************************************************
 BO0001   : Bond Length=  1.472892 / Angstrom  2.783362 / bohr
 BO0002   : Bond Length=  1.999401 / Angstrom  3.778321 / bohr
  Valence angle close to end in range of definition
 AN0001   : Angle=      179.1332   / Degree    3.126465 / rad

 *******************************************
 * Values of the constraints   / au or rad *
 *******************************************
   Label        C         C0
 Cns001      2.783362  2.078699
 Cns002      3.778321  4.535343
 Cns003      3.126465  3.141593

  14  -289.84653667  -289.83892922     0.00760745  0.11059678  0.15687105  0.02077808  0.17850016  0.46612356  0.00817761     54.47

 Constraints section
ConstraintsConstraintsConstraintsConstraintsConstraintsConstraintsConstraintsConstraintsConstraintsConstraints
ConstraintsConstraintsConstraintsConstraintsConstraintsConstraintsConstraintsConstraintsConstraintsConstraints
Constraints                                                                                        Constraints
Constraints                                 C O N S T R A I N T S                                  Constraints
Constraints                                                                                        Constraints

************************************************************************************************************************
BO0001 = BOND       H7    C1
BO0002 = BOND       H7    C17
AN0001 = ANGLE      C1    H7    C17
VALUES
BO0001 =      1.10000000 ANGSTROM
BO0002 =      2.40000000 ANGSTROM
AN0001 =    180.00000000 DEGREE
************************************************************************************************************************


 *************************************************************
 * Values of the primitive constraints                       *
 *************************************************************
 BO0001   : Bond Length=  1.412136 / Angstrom  2.668551 / bohr
 BO0002   : Bond Length=  2.064671 / Angstrom  3.901663 / bohr
  Valence angle close to end in range of definition
 AN0001   : Angle=      179.2683   / Degree    3.128823 / rad

 *******************************************
 * Values of the constraints   / au or rad *
 *******************************************
   Label        C         C0
 Cns001      2.668551  2.078699
 Cns002      3.901663  4.535343
 Cns003      3.128823  3.141593

  15  -289.83892922  -289.84553537    -0.00660615  0.16284472  0.22729585  0.03010607  0.26345062  0.49760731  0.00872995     58.40

 Constraints section
ConstraintsConstraintsConstraintsConstraintsConstraintsConstraintsConstraintsConstraintsConstraintsConstraints
ConstraintsConstraintsConstraintsConstraintsConstraintsConstraintsConstraintsConstraintsConstraintsConstraints
Constraints                                                                                        Constraints
Constraints                                 C O N S T R A I N T S                                  Constraints
Constraints                                                                                        Constraints

************************************************************************************************************************
BO0001 = BOND       H7    C1
BO0002 = BOND       H7    C17
AN0001 = ANGLE      C1    H7    C17
VALUES
BO0001 =      1.10000000 ANGSTROM
BO0002 =      2.40000000 ANGSTROM
AN0001 =    180.00000000 DEGREE
************************************************************************************************************************


 *************************************************************
 * Values of the primitive constraints                       *
 *************************************************************
 BO0001   : Bond Length=  1.358060 / Angstrom  2.566362 / bohr
 BO0002   : Bond Length=  2.122765 / Angstrom  4.011445 / bohr
  Valence angle close to end in range of definition
 AN0001   : Angle=      179.3170   / Degree    3.129673 / rad

 *******************************************
 * Values of the constraints   / au or rad *
 *******************************************
   Label        C         C0
 Cns001      2.566362  2.078699
 Cns002      4.011445  4.535343
 Cns003      3.129673  3.141593

  16  -289.84553537  -289.86344586    -0.01791049  0.15520793  0.21788792  0.02885996  0.08544252  0.26971661  0.00473187     62.22

 Constraints section
ConstraintsConstraintsConstraintsConstraintsConstraintsConstraintsConstraintsConstraintsConstraintsConstraints
ConstraintsConstraintsConstraintsConstraintsConstraintsConstraintsConstraintsConstraintsConstraintsConstraints
Constraints                                                                                        Constraints
Constraints                                 C O N S T R A I N T S                                  Constraints
Constraints                                                                                        Constraints

************************************************************************************************************************
BO0001 = BOND       H7    C1
BO0002 = BOND       H7    C17
AN0001 = ANGLE      C1    H7    C17
VALUES
BO0001 =      1.10000000 ANGSTROM
BO0002 =      2.40000000 ANGSTROM
AN0001 =    180.00000000 DEGREE
************************************************************************************************************************


 *************************************************************
 * Values of the primitive constraints                       *
 *************************************************************
 BO0001   : Bond Length=  1.296004 / Angstrom  2.449093 / bohr
 BO0002   : Bond Length=  2.189432 / Angstrom  4.137427 / bohr
  Valence angle close to end in range of definition
 AN0001   : Angle=      179.4802   / Degree    3.132521 / rad

 *******************************************
 * Values of the constraints   / au or rad *
 *******************************************
   Label        C         C0
 Cns001      2.449093  2.078699
 Cns002      4.137427  4.535343
 Cns003      3.132521  3.141593

  17  -289.86344586  -289.86843819    -0.00499233  0.07585813  0.11305203  0.01497411  0.18094022  0.45895782  0.00805189     66.43

 Constraints section
ConstraintsConstraintsConstraintsConstraintsConstraintsConstraintsConstraintsConstraintsConstraintsConstraints
ConstraintsConstraintsConstraintsConstraintsConstraintsConstraintsConstraintsConstraintsConstraintsConstraints
Constraints                                                                                        Constraints
Constraints                                 C O N S T R A I N T S                                  Constraints
Constraints                                                                                        Constraints

************************************************************************************************************************
BO0001 = BOND       H7    C1
BO0002 = BOND       H7    C17
AN0001 = ANGLE      C1    H7    C17
VALUES
BO0001 =      1.10000000 ANGSTROM
BO0002 =      2.40000000 ANGSTROM
AN0001 =    180.00000000 DEGREE
************************************************************************************************************************


 *************************************************************
 * Values of the primitive constraints                       *
 *************************************************************
 BO0001   : Bond Length=  1.241930 / Angstrom  2.346907 / bohr
 BO0002   : Bond Length=  2.247525 / Angstrom  4.247206 / bohr
  Valence angle close to end in range of definition
 AN0001   : Angle=      179.4350   / Degree    3.131731 / rad

 *******************************************
 * Values of the constraints   / au or rad *
 *******************************************
   Label        C         C0
 Cns001      2.346907  2.078699
 Cns002      4.247206  4.535343
 Cns003      3.131731  3.141593

  18  -289.86843819  -289.86938396    -0.00094577  0.03487144  0.06088076  0.00806385  0.17458537  0.36876778  0.00646961     70.55

 Constraints section
ConstraintsConstraintsConstraintsConstraintsConstraintsConstraintsConstraintsConstraintsConstraintsConstraints
ConstraintsConstraintsConstraintsConstraintsConstraintsConstraintsConstraintsConstraintsConstraintsConstraints
Constraints                                                                                        Constraints
Constraints                                 C O N S T R A I N T S                                  Constraints
Constraints                                                                                        Constraints

************************************************************************************************************************
BO0001 = BOND       H7    C1
BO0002 = BOND       H7    C17
AN0001 = ANGLE      C1    H7    C17
VALUES
BO0001 =      1.10000000 ANGSTROM
BO0002 =      2.40000000 ANGSTROM
AN0001 =    180.00000000 DEGREE
************************************************************************************************************************


 *************************************************************
 * Values of the primitive constraints                       *
 *************************************************************
 BO0001   : Bond Length=  1.163156 / Angstrom  2.198046 / bohr
 BO0002   : Bond Length=  2.332151 / Angstrom  4.407127 / bohr
  Valence angle close to end in range of definition
 AN0001   : Angle=      178.7261   / Degree    3.119360 / rad

 *******************************************
 * Values of the constraints   / au or rad *
 *******************************************
   Label        C         C0
 Cns001      2.198046  2.078699
 Cns002      4.407127  4.535343
 Cns003      3.119360  3.141593

  19  -289.86938396  -289.86958149    -0.00019753  0.03034843  0.04447817  0.00589128  0.15342668  0.29910325  0.00524743     74.75

 Constraints section
ConstraintsConstraintsConstraintsConstraintsConstraintsConstraintsConstraintsConstraintsConstraintsConstraints
ConstraintsConstraintsConstraintsConstraintsConstraintsConstraintsConstraintsConstraintsConstraintsConstraints
Constraints                                                                                        Constraints
Constraints                                 C O N S T R A I N T S                                  Constraints
Constraints                                                                                        Constraints

************************************************************************************************************************
BO0001 = BOND       H7    C1
BO0002 = BOND       H7    C17
AN0001 = ANGLE      C1    H7    C17
VALUES
BO0001 =      1.10000000 ANGSTROM
BO0002 =      2.40000000 ANGSTROM
AN0001 =    180.00000000 DEGREE
************************************************************************************************************************


 *************************************************************
 * Values of the primitive constraints                       *
 *************************************************************
 BO0001   : Bond Length=  1.107872 / Angstrom  2.093574 / bohr
 BO0002   : Bond Length=  2.391543 / Angstrom  4.519362 / bohr
  Valence angle close to end in range of definition
 AN0001   : Angle=      179.5973   / Degree    3.134564 / rad

 *******************************************
 * Values of the constraints   / au or rad *
 *******************************************
   Label        C         C0
 Cns001      2.093574  2.078699
 Cns002      4.519362  4.535343
 Cns003      3.134564  3.141593

  20  -289.86958149  -289.87073862    -0.00115713  0.02225170  0.03467260  0.00459250  0.50805105  0.76069592  0.01334554     78.82

 Constraints section
ConstraintsConstraintsConstraintsConstraintsConstraintsConstraintsConstraintsConstraintsConstraintsConstraints
ConstraintsConstraintsConstraintsConstraintsConstraintsConstraintsConstraintsConstraintsConstraintsConstraints
Constraints                                                                                        Constraints
Constraints                                 C O N S T R A I N T S                                  Constraints
Constraints                                                                                        Constraints

************************************************************************************************************************
BO0001 = BOND       H7    C1
BO0002 = BOND       H7    C17
AN0001 = ANGLE      C1    H7    C17
VALUES
BO0001 =      1.10000000 ANGSTROM
BO0002 =      2.40000000 ANGSTROM
AN0001 =    180.00000000 DEGREE
************************************************************************************************************************


 *************************************************************
 * Values of the primitive constraints                       *
 *************************************************************
 BO0001   : Bond Length=  1.100000 / Angstrom  2.078699 / bohr
 BO0002   : Bond Length=  2.400000 / Angstrom  4.535343 / bohr
  Valence angle close to end in range of definition
 AN0001   : Angle=      179.5725   / Degree    3.134131 / rad

 *******************************************
 * Values of the constraints   / au or rad *
 *******************************************
   Label        C         C0
 Cns001      2.078699  2.078699
 Cns002      4.535343  4.535343
 Cns003      3.134131  3.141593

  21  -289.87073862  -289.87103096    -0.00029233  0.02666445  0.03426184  0.00453809  0.16724929  0.23799350  0.00417532     82.71

 Constraints section
ConstraintsConstraintsConstraintsConstraintsConstraintsConstraintsConstraintsConstraintsConstraintsConstraints
ConstraintsConstraintsConstraintsConstraintsConstraintsConstraintsConstraintsConstraintsConstraintsConstraints
Constraints                                                                                        Constraints
Constraints                                 C O N S T R A I N T S                                  Constraints
Constraints                                                                                        Constraints

************************************************************************************************************************
BO0001 = BOND       H7    C1
BO0002 = BOND       H7    C17
AN0001 = ANGLE      C1    H7    C17
VALUES
BO0001 =      1.10000000 ANGSTROM
BO0002 =      2.40000000 ANGSTROM
AN0001 =    180.00000000 DEGREE
************************************************************************************************************************


 *************************************************************
 * Values of the primitive constraints                       *
 *************************************************************
 BO0001   : Bond Length=  1.100000 / Angstrom  2.078699 / bohr
 BO0002   : Bond Length=  2.400000 / Angstrom  4.535343 / bohr
  Valence angle close to end in range of definition
 AN0001   : Angle=      179.4781   / Degree    3.132483 / rad

 *******************************************
 * Values of the constraints   / au or rad *
 *******************************************
   Label        C         C0
 Cns001      2.078699  2.078699
 Cns002      4.535343  4.535343
 Cns003      3.132483  3.141593

  22  -289.87103096  -289.87090792     0.00012304  0.02661915  0.03349255  0.00443620  0.48492347  0.62145601  0.01090274     86.85

 Constraints section
ConstraintsConstraintsConstraintsConstraintsConstraintsConstraintsConstraintsConstraintsConstraintsConstraints
ConstraintsConstraintsConstraintsConstraintsConstraintsConstraintsConstraintsConstraintsConstraintsConstraints
Constraints                                                                                        Constraints
Constraints                                 C O N S T R A I N T S                                  Constraints
Constraints                                                                                        Constraints

************************************************************************************************************************
BO0001 = BOND       H7    C1
BO0002 = BOND       H7    C17
AN0001 = ANGLE      C1    H7    C17
VALUES
BO0001 =      1.10000000 ANGSTROM
BO0002 =      2.40000000 ANGSTROM
AN0001 =    180.00000000 DEGREE
************************************************************************************************************************


 *************************************************************
 * Values of the primitive constraints                       *
 *************************************************************
 BO0001   : Bond Length=  1.100000 / Angstrom  2.078699 / bohr
 BO0002   : Bond Length=  2.400000 / Angstrom  4.535343 / bohr
  Valence angle close to end in range of definition
 AN0001   : Angle=      179.0088   / Degree    3.124293 / rad

 *******************************************
 * Values of the constraints   / au or rad *
 *******************************************
   Label        C         C0
 Cns001      2.078699  2.078699
 Cns002      4.535343  4.535343
 Cns003      3.124293  3.141593

  23  -289.87090792  -289.87119840    -0.00029048  0.02580839  0.03569671  0.00472814  0.22475367  0.33004824  0.00579032     90.99

 Constraints section
ConstraintsConstraintsConstraintsConstraintsConstraintsConstraintsConstraintsConstraintsConstraintsConstraints
ConstraintsConstraintsConstraintsConstraintsConstraintsConstraintsConstraintsConstraintsConstraintsConstraints
Constraints                                                                                        Constraints
Constraints                                 C O N S T R A I N T S                                  Constraints
Constraints                                                                                        Constraints

************************************************************************************************************************
BO0001 = BOND       H7    C1
BO0002 = BOND       H7    C17
AN0001 = ANGLE      C1    H7    C17
VALUES
BO0001 =      1.10000000 ANGSTROM
BO0002 =      2.40000000 ANGSTROM
AN0001 =    180.00000000 DEGREE
************************************************************************************************************************


 *************************************************************
 * Values of the primitive constraints                       *
 *************************************************************
 BO0001   : Bond Length=  1.100000 / Angstrom  2.078699 / bohr
 BO0002   : Bond Length=  2.400000 / Angstrom  4.535343 / bohr
  Valence angle close to end in range of definition
 AN0001   : Angle=      178.6889   / Degree    3.118709 / rad

 *******************************************
 * Values of the constraints   / au or rad *
 *******************************************
   Label        C         C0
 Cns001      2.078699  2.078699
 Cns002      4.535343  4.535343
 Cns003      3.118709  3.141593

  24  -289.87119840  -289.87112806     0.00007034  0.02627096  0.03459734  0.00458253  0.34442926  0.47980086  0.00841756     95.41

 Constraints section
ConstraintsConstraintsConstraintsConstraintsConstraintsConstraintsConstraintsConstraintsConstraintsConstraints
ConstraintsConstraintsConstraintsConstraintsConstraintsConstraintsConstraintsConstraintsConstraintsConstraints
Constraints                                                                                        Constraints
Constraints                                 C O N S T R A I N T S                                  Constraints
Constraints                                                                                        Constraints

************************************************************************************************************************
BO0001 = BOND       H7    C1
BO0002 = BOND       H7    C17
AN0001 = ANGLE      C1    H7    C17
VALUES
BO0001 =      1.10000000 ANGSTROM
BO0002 =      2.40000000 ANGSTROM
AN0001 =    180.00000000 DEGREE
************************************************************************************************************************


 *************************************************************
 * Values of the primitive constraints                       *
 *************************************************************
 BO0001   : Bond Length=  1.100000 / Angstrom  2.078699 / bohr
 BO0002   : Bond Length=  2.400000 / Angstrom  4.535343 / bohr
  Valence angle close to end in range of definition
 AN0001   : Angle=      179.6078   / Degree    3.134748 / rad

 *******************************************
 * Values of the constraints   / au or rad *
 *******************************************
   Label        C         C0
 Cns001      2.078699  2.078699
 Cns002      4.535343  4.535343
 Cns003      3.134748  3.141593

  25  -289.87112806  -289.87149118    -0.00036312  0.02673058  0.03369456  0.00446295  0.19397489  0.31682705  0.00555837     99.20

 Constraints section
ConstraintsConstraintsConstraintsConstraintsConstraintsConstraintsConstraintsConstraintsConstraintsConstraints
ConstraintsConstraintsConstraintsConstraintsConstraintsConstraintsConstraintsConstraintsConstraintsConstraints
Constraints                                                                                        Constraints
Constraints                                 C O N S T R A I N T S                                  Constraints
Constraints                                                                                        Constraints

************************************************************************************************************************
BO0001 = BOND       H7    C1
BO0002 = BOND       H7    C17
AN0001 = ANGLE      C1    H7    C17
VALUES
BO0001 =      1.10000000 ANGSTROM
BO0002 =      2.40000000 ANGSTROM
AN0001 =    180.00000000 DEGREE
************************************************************************************************************************


 *************************************************************
 * Values of the primitive constraints                       *
 *************************************************************
 BO0001   : Bond Length=  1.100000 / Angstrom  2.078699 / bohr
 BO0002   : Bond Length=  2.400000 / Angstrom  4.535343 / bohr
  Valence angle close to end in range of definition
 AN0001   : Angle=      178.6683   / Degree    3.118351 / rad

 *******************************************
 * Values of the constraints   / au or rad *
 *******************************************
   Label        C         C0
 Cns001      2.078699  2.078699
 Cns002      4.535343  4.535343
 Cns003      3.118351  3.141593

  26  -289.87149118  -289.87151315    -0.00002197  0.02673435  0.03358049  0.00444785  0.10889277  0.26397960  0.00463122    102.81

 Constraints section
ConstraintsConstraintsConstraintsConstraintsConstraintsConstraintsConstraintsConstraintsConstraintsConstraints
ConstraintsConstraintsConstraintsConstraintsConstraintsConstraintsConstraintsConstraintsConstraintsConstraints
Constraints                                                                                        Constraints
Constraints                                 C O N S T R A I N T S                                  Constraints
Constraints                                                                                        Constraints

************************************************************************************************************************
BO0001 = BOND       H7    C1
BO0002 = BOND       H7    C17
AN0001 = ANGLE      C1    H7    C17
VALUES
BO0001 =      1.10000000 ANGSTROM
BO0002 =      2.40000000 ANGSTROM
AN0001 =    180.00000000 DEGREE
************************************************************************************************************************


 *************************************************************
 * Values of the primitive constraints                       *
 *************************************************************
 BO0001   : Bond Length=  1.100000 / Angstrom  2.078699 / bohr
 BO0002   : Bond Length=  2.400000 / Angstrom  4.535343 / bohr
  Valence angle close to end in range of definition
 AN0001   : Angle=      179.3846   / Degree    3.130852 / rad

 *******************************************
 * Values of the constraints   / au or rad *
 *******************************************
   Label        C         C0
 Cns001      2.078699  2.078699
 Cns002      4.535343  4.535343
 Cns003      3.130852  3.141593

  27  -289.87151315  -289.87153209    -0.00001894  0.02672406  0.03424881  0.00453637  0.12440457  0.16864610  0.00295870    106.57

 Constraints section
ConstraintsConstraintsConstraintsConstraintsConstraintsConstraintsConstraintsConstraintsConstraintsConstraints
ConstraintsConstraintsConstraintsConstraintsConstraintsConstraintsConstraintsConstraintsConstraintsConstraints
Constraints                                                                                        Constraints
Constraints                                 C O N S T R A I N T S                                  Constraints
Constraints                                                                                        Constraints

************************************************************************************************************************
BO0001 = BOND       H7    C1
BO0002 = BOND       H7    C17
AN0001 = ANGLE      C1    H7    C17
VALUES
BO0001 =      1.10000000 ANGSTROM
BO0002 =      2.40000000 ANGSTROM
AN0001 =    180.00000000 DEGREE
************************************************************************************************************************


 *************************************************************
 * Values of the primitive constraints                       *
 *************************************************************
 BO0001   : Bond Length=  1.100000 / Angstrom  2.078699 / bohr
 BO0002   : Bond Length=  2.400000 / Angstrom  4.535343 / bohr
  Valence angle close to end in range of definition
 AN0001   : Angle=      178.1951   / Degree    3.110091 / rad

 *******************************************
 * Values of the constraints   / au or rad *
 *******************************************
   Label        C         C0
 Cns001      2.078699  2.078699
 Cns002      4.535343  4.535343
 Cns003      3.110091  3.141593

  28  -289.87153209  -289.87141319     0.00011890  0.02674256  0.03367289  0.00446008  0.14918685  0.22192078  0.00389335    110.51

 Constraints section
ConstraintsConstraintsConstraintsConstraintsConstraintsConstraintsConstraintsConstraintsConstraintsConstraints
ConstraintsConstraintsConstraintsConstraintsConstraintsConstraintsConstraintsConstraintsConstraintsConstraints
Constraints                                                                                        Constraints
Constraints                                 C O N S T R A I N T S                                  Constraints
Constraints                                                                                        Constraints

************************************************************************************************************************
BO0001 = BOND       H7    C1
BO0002 = BOND       H7    C17
AN0001 = ANGLE      C1    H7    C17
VALUES
BO0001 =      1.10000000 ANGSTROM
BO0002 =      2.40000000 ANGSTROM
AN0001 =    180.00000000 DEGREE
************************************************************************************************************************


 *************************************************************
 * Values of the primitive constraints                       *
 *************************************************************
 BO0001   : Bond Length=  1.100000 / Angstrom  2.078699 / bohr
 BO0002   : Bond Length=  2.400000 / Angstrom  4.535343 / bohr
  Valence angle close to end in range of definition
 AN0001   : Angle=      179.4918   / Degree    3.132723 / rad

 *******************************************
 * Values of the constraints   / au or rad *
 *******************************************
   Label        C         C0
 Cns001      2.078699  2.078699
 Cns002      4.535343  4.535343
 Cns003      3.132723  3.141593

  29  -289.87141319  -289.87157534    -0.00016215  0.02663651  0.03419329  0.00452901  0.18427423  0.22101170  0.00387740    114.70

 Constraints section
ConstraintsConstraintsConstraintsConstraintsConstraintsConstraintsConstraintsConstraintsConstraintsConstraints
ConstraintsConstraintsConstraintsConstraintsConstraintsConstraintsConstraintsConstraintsConstraintsConstraints
Constraints                                                                                        Constraints
Constraints                                 C O N S T R A I N T S                                  Constraints
Constraints                                                                                        Constraints

************************************************************************************************************************
BO0001 = BOND       H7    C1
BO0002 = BOND       H7    C17
AN0001 = ANGLE      C1    H7    C17
VALUES
BO0001 =      1.10000000 ANGSTROM
BO0002 =      2.40000000 ANGSTROM
AN0001 =    180.00000000 DEGREE
************************************************************************************************************************


 *************************************************************
 * Values of the primitive constraints                       *
 *************************************************************
 BO0001   : Bond Length=  1.100000 / Angstrom  2.078699 / bohr
 BO0002   : Bond Length=  2.400000 / Angstrom  4.535343 / bohr
 AN0001   : Angle=      177.1637   / Degree    3.092090 / rad

 *******************************************
 * Values of the constraints   / au or rad *
 *******************************************
   Label        C         C0
 Cns001      2.078699  2.078699
 Cns002      4.535343  4.535343
 Cns003      3.092090  3.141593

  30  -289.87157534  -289.87152842     0.00004692  0.02657016  0.03388669  0.00448840  0.16446691  0.22545054  0.00395527    118.36

 Constraints section
ConstraintsConstraintsConstraintsConstraintsConstraintsConstraintsConstraintsConstraintsConstraintsConstraints
ConstraintsConstraintsConstraintsConstraintsConstraintsConstraintsConstraintsConstraintsConstraintsConstraints
Constraints                                                                                        Constraints
Constraints                                 C O N S T R A I N T S                                  Constraints
Constraints                                                                                        Constraints

************************************************************************************************************************
BO0001 = BOND       H7    C1
BO0002 = BOND       H7    C17
AN0001 = ANGLE      C1    H7    C17
VALUES
BO0001 =      1.10000000 ANGSTROM
BO0002 =      2.40000000 ANGSTROM
AN0001 =    180.00000000 DEGREE
************************************************************************************************************************


 *************************************************************
 * Values of the primitive constraints                       *
 *************************************************************
 BO0001   : Bond Length=  1.100000 / Angstrom  2.078699 / bohr
 BO0002   : Bond Length=  2.400000 / Angstrom  4.535343 / bohr
  Valence angle close to end in range of definition
 AN0001   : Angle=      178.8973   / Degree    3.122347 / rad

 *******************************************
 * Values of the constraints   / au or rad *
 *******************************************
   Label        C         C0
 Cns001      2.078699  2.078699
 Cns002      4.535343  4.535343
 Cns003      3.122347  3.141593

  31  -289.87152842  -289.87151231     0.00001611  0.02662442  0.03457458  0.00457951  0.31095394  0.57544768  0.01009557    122.17

 Constraints section
ConstraintsConstraintsConstraintsConstraintsConstraintsConstraintsConstraintsConstraintsConstraintsConstraints
ConstraintsConstraintsConstraintsConstraintsConstraintsConstraintsConstraintsConstraintsConstraintsConstraints
Constraints                                                                                        Constraints
[...]

 Final alpha occupancy:  28
 Final beta  occupancy:  27

 !UKS STATE  1.1 Energy              -290.222099117417
 Nuclear energy                       274.16887391
 One-electron energy                 -932.64141027
 Two-electron energy                  401.23235186
 Density functional                   -32.98191463     PBEX=-41.64052734 PBEC= -1.75151913
 Virial quotient                       -1.00562706
 !UKS STATE  1.1 Dipole moment         -0.08051805    -0.06243630     1.13157790
 Dipole moment /Debye                  -0.20464307    -0.15868686     2.87599577

 Orbital energies for positive spin:

         1.1          2.1          3.1          4.1          5.1          6.1          7.1          8.1          9.1         10.1
    -14.429870   -10.324354   -10.243531   -10.228439   -10.220413   -10.220359   -10.218665    -0.968696    -0.851828    -0.766817

        11.1         12.1         13.1         14.1         15.1         16.1         17.1         18.1         19.1         20.1
     -0.714311    -0.654005    -0.588909    -0.507857    -0.490218    -0.471414    -0.456364    -0.434732    -0.406661    -0.405864

        21.1         22.1         23.1         24.1         25.1         26.1         27.1         28.1         29.1         30.1
     -0.401904    -0.388591    -0.388442    -0.382479    -0.369968    -0.347040    -0.342584    -0.334902     0.000058     0.001625

 Orbital energies for negative spin:

         1.1          2.1          3.1          4.1          5.1          6.1          7.1          8.1          9.1         10.1
    -14.426909   -10.307030   -10.242274   -10.228358   -10.220395   -10.220332   -10.218619    -0.948284    -0.849761    -0.766245

        11.1         12.1         13.1         14.1         15.1         16.1         17.1         18.1         19.1         20.1
     -0.713914    -0.653220    -0.583914    -0.492471    -0.471006    -0.455368    -0.435268    -0.433837    -0.405663    -0.401595

        21.1         22.1         23.1         24.1         25.1         26.1         27.1         28.1         29.1         30.1
     -0.382294    -0.380722    -0.380581    -0.368873    -0.347111    -0.342644    -0.336537    -0.223838     0.020403     0.023273


 HOMO     28.1    -0.334902 =      -9.1131eV
 LUMO    -28.1    -0.223838 =      -6.0909eV
 LUMO-HOMO         0.111064 =       3.0222eV

 EXPECTATION VALUE OF S**2:             0.76311049

 Occupation number threshold for pseudo-canonical orbitals: 1.9990 (occupied), 0.0010 (virtual)

 Number of pseudo-canonical occupied orbitals per symmetry:   24
 Number of active natural orbitals per symmetry:               7

 Natural orbitals saved to record    2204.2 (Orbital set 3)

 Orbital spaces for UNO-CAS (Min. occupation: 0.020  Max. occupation: 1.980):

 Closed:       27
 Active:        1


 **********************************************************************************************************************************
 DATASETS  * FILE   NREC   LENGTH (MB)   RECORD NAMES
              1      19       33.38       500      610      700      900      950      970     1001      129      960     1100   
                                          VAR    BASINP    GEOM    SYMINP    ZMAT    AOBASIS   BASIS     P2S    ABASIS      S 
                                         1400     1410     1200     1210     1080     1600     1650     1700     1800   
                                           T        V       H0       H01     AOSYM     SMH    MOLCAS    OPER     GRID   

              2      13       28.19       700     1000      520     2100     1800     2200      520(1)  2201      520(2)  2202   
                                         GEOM     BASIS   MCVARS     RHF     GRID      UKS    MCVARS     UKS    MCVARS     UKS  
                                         1001     2203     2204   
                                         BASIS     UKS      UKS  

 PROGRAMS   *        TOTAL    DF-UKS    DF-UKS       INT    DF-UKS      OPTG    DF-UKS      OPTG    DF-UKS     DF-HF       INT
 CPU TIMES  *      1060.05    128.54      4.79      0.20      3.01    691.03     28.61    197.44      3.05      2.93      0.32
 REAL TIME  *      1076.79 SEC
 DISK USED  *        61.66 MB (local),      246.66 MB (total)
 SF USED    *        32.62 MB
 GA USED    *         3.27 MB       (max)       2.02 MB       (current)
 **********************************************************************************************************************************

 Density functional group PBE0=PBEX+PBEC
 Functional: PBEX(Automatically generated (new) PBEX)                          Gradient terms: 1
 Functional: PBEC(Automatically generated (new) PBEC)                          Gradient terms: 1
 Use libxcgrid:  F
 Use grid at  1800.2


 Exact exchange will be calculated, factor:  0.2500

 Functional: PBEX                      Factor:  0.7500
 Functional: PBEC                      Factor:  1.0000

  234265 words reserved for DFT integration

 PROGRAM * UKS-SCF (Unrestricted Kohn-Sham)     Authors: W. Meyer, H.-J. Werner, P.J. Knowles, 1993

 NUMBER OF ELECTRONS:      28+   27-    SPACE SYMMETRY=1    SPIN SYMMETRY: Doublet 
 CONVERGENCE THRESHOLDS:    1.00E-06 (Density)    1.00E-06 (Energy)
 INTEGRAL THRESHOLDS:       1.00E-11 (Initial)    1.00E-11 (Final)
 MAX. NUMBER OF ITERATIONS:       60
 INTERPOLATION TYPE:            DIIS
 INTERPOLATION STEPS:              2 (START)      1 (STEP)
 LEVEL SHIFTS:                 -0.20 (ALPHA)  -0.20 (BETA) 



 Use fine grid record 1800.2 for energy threshold  1.0D-06
 Molecular orbitals read from record     2204.2  Type=UKS/ALPHA (state 1.1)
 Molecular orbitals read from record     2204.2  Type=UKS/BETA (state 1.1)

 Molecular orbital dump at record        2205.2

 Initial alpha occupation  28
 Initial beta  occupation  27

 Direct Fock-matrix evaluation.        Author: H.-J. Werner (1996)

 Integral Threshold:                  0.1D-10

 ITERATION   DDIFF            GRAD            ENERGY        2-EL.EN.            DIPOLE MOMENTS         DIIS   CPU(IT)  CPU(TOT)
    1      0.000D+00      0.000D+00      -290.22184355    802.465215   -0.08052   -0.06244    1.13158    0     10.9     10.9
    2      0.341D-04      0.758D-05      -290.22184494    802.461762   -0.08054   -0.06242    1.13160    1      9.3     20.2
    3      0.110D-04      0.131D-05      -290.22184501    802.462862   -0.08057   -0.06240    1.13152    2      9.2     29.4
    4      0.380D-05      0.235D-06      -290.22184502    802.462676   -0.08061   -0.06239    1.13155    3      9.0     38.4
    5      0.784D-06      0.129D-06      -290.22184502    802.462885   -0.08061   -0.06239    1.13141    4      8.6     47.0
    6      0.384D-06      0.958D-07      -290.22184502    802.462972   -0.08062   -0.06238    1.13144    5      8.2     55.1

 Final alpha occupancy:  28
 Final beta  occupancy:  27

 !UKS STATE  1.1 Energy              -290.221845017132
 Nuclear energy                       274.16887391
 One-electron energy                 -932.64055701
 Two-electron energy                  401.23148611
 Density functional                   -32.98164803     PBEX=-41.64010895 PBEC= -1.75156631
 Virial quotient                       -1.00563871
 !UKS STATE  1.1 Dipole moment         -0.08061931    -0.06238129     1.13144491
 Dipole moment /Debye                  -0.20490042    -0.15854704     2.87565776

 Orbital energies for positive spin:

         1.1          2.1          3.1          4.1          5.1          6.1          7.1          8.1          9.1         10.1
    -14.429912   -10.324384   -10.243559   -10.228461   -10.220461   -10.220407   -10.218714    -0.968693    -0.851830    -0.766821

        11.1         12.1         13.1         14.1         15.1         16.1         17.1         18.1         19.1         20.1
     -0.714316    -0.654006    -0.588905    -0.507857    -0.490224    -0.471421    -0.456373    -0.434734    -0.406661    -0.405871

        21.1         22.1         23.1         24.1         25.1         26.1         27.1         28.1         29.1         30.1
     -0.401906    -0.388594    -0.388445    -0.382480    -0.369965    -0.347044    -0.342587    -0.334904     0.000043     0.001599

 Orbital energies for negative spin:

         1.1          2.1          3.1          4.1          5.1          6.1          7.1          8.1          9.1         10.1
    -14.426950   -10.307059   -10.242302   -10.228380   -10.220443   -10.220381   -10.218667    -0.948280    -0.849764    -0.766250

        11.1         12.1         13.1         14.1         15.1         16.1         17.1         18.1         19.1         20.1
     -0.713920    -0.653221    -0.583912    -0.492475    -0.471012    -0.455377    -0.435272    -0.433839    -0.405663    -0.401597

        21.1         22.1         23.1         24.1         25.1         26.1         27.1         28.1         29.1         30.1
     -0.382296    -0.380726    -0.380585    -0.368870    -0.347114    -0.342648    -0.336531    -0.223847     0.020386     0.023241


 HOMO     28.1    -0.334904 =      -9.1132eV
 LUMO    -28.1    -0.223847 =      -6.0912eV
 LUMO-HOMO         0.111057 =       3.0220eV

 EXPECTATION VALUE OF S**2:             0.76310768

 Occupation number threshold for pseudo-canonical orbitals: 1.9990 (occupied), 0.0010 (virtual)

 Number of pseudo-canonical occupied orbitals per symmetry:   24
 Number of active natural orbitals per symmetry:               7

 Natural orbitals saved to record    2205.2 (Orbital set 3)

 Orbital spaces for UNO-CAS (Min. occupation: 0.020  Max. occupation: 1.980):

 Closed:       27
 Active:        1


 **********************************************************************************************************************************
 DATASETS  * FILE   NREC   LENGTH (MB)   RECORD NAMES
              1      19       33.38       500      610      700      900      950      970     1001      129      960     1100   
                                          VAR    BASINP    GEOM    SYMINP    ZMAT    AOBASIS   BASIS     P2S    ABASIS      S 
                                         1400     1410     1200     1210     1080     1600     1650     1700     1800   
                                           T        V       H0       H01     AOSYM     SMH    MOLCAS    OPER     GRID   

              2      14       34.05       700     1000      520     2100     1800     2200      520(1)  2201      520(2)  2202   
                                         GEOM     BASIS   MCVARS     RHF     GRID      UKS    MCVARS     UKS    MCVARS     UKS  
                                         1001     2203     2204     2205   
                                         BASIS     UKS      UKS      UKS  

 PROGRAMS   *        TOTAL   UKS-SCF    DF-UKS    DF-UKS       INT    DF-UKS      OPTG    DF-UKS      OPTG    DF-UKS     DF-HF
 CPU TIMES  *      1115.26     55.19    128.54      4.79      0.20      3.01    691.03     28.61    197.44      3.05      2.93
 REAL TIME  *      1132.05 SEC
 DISK USED  *        67.52 MB (local),      270.08 MB (total)
 SF USED    *        32.62 MB
 GA USED    *         3.27 MB       (max)       2.02 MB       (current)
 **********************************************************************************************************************************

 Density functional group B3LYP=B88+DIRAC+LYP+VWN5
 Functional: B88(Automatically generated (new) B88)                            Gradient terms: 1
 Functional: DIRAC(Automatically generated (new) DIRAC)                        Gradient terms: 0
 Functional: LYP(Automatically generated (new) LYP)                            Gradient terms: 1
 Functional: VWN5(Automatically generated (new) VWN5)                          Gradient terms: 0
 Use libxcgrid:  F
 Use grid at  1800.2


 Exact exchange will be calculated, factor:  0.2000

 Functional: B88                       Factor:  0.7200
 Functional: DIRAC                     Factor:  0.0800
 Functional: LYP                       Factor:  0.8100
 Functional: VWN5                      Factor:  0.1900

  234265 words reserved for DFT integration

 PROGRAM * UKS-SCF (Unrestricted Kohn-Sham)     Authors: W. Meyer, H.-J. Werner, P.J. Knowles, 1993

 NUMBER OF ELECTRONS:      28+   27-    SPACE SYMMETRY=1    SPIN SYMMETRY: Doublet 
 CONVERGENCE THRESHOLDS:    1.00E-06 (Density)    1.00E-06 (Energy)
 INTEGRAL THRESHOLDS:       1.00E-11 (Initial)    1.00E-11 (Final)
 MAX. NUMBER OF ITERATIONS:       60
 INTERPOLATION TYPE:            DIIS
 INTERPOLATION STEPS:              2 (START)      1 (STEP)
 LEVEL SHIFTS:                 -0.20 (ALPHA)  -0.20 (BETA) 



 Use fine grid record 1800.2 for energy threshold  1.0D-06
 Molecular orbitals read from record     2205.2  Type=UKS/ALPHA (state 1.1)
 Molecular orbitals read from record     2205.2  Type=UKS/BETA (state 1.1)

 Molecular orbital dump at record        2206.2

 Initial alpha occupation  28
 Initial beta  occupation  27

 Direct Fock-matrix evaluation.        Author: H.-J. Werner (1996)

 Integral Threshold:                  0.1D-10

 ITERATION   DDIFF            GRAD            ENERGY        2-EL.EN.            DIPOLE MOMENTS         DIIS   CPU(IT)  CPU(TOT)
    1      0.000D+00      0.000D+00      -290.39516707    806.641683   -0.08062   -0.06238    1.13144    0     11.1     11.1
    2      0.102D-02      0.389D-03      -290.39930241    806.977977   -0.08168   -0.06382    1.15341    1      9.7     20.8
    3      0.169D-03      0.635D-04      -290.39953382    806.660522   -0.08090   -0.06543    1.15164    2      9.5     30.3
    4      0.871D-04      0.299D-04      -290.39960063    806.687300   -0.08330   -0.06684    1.18997    3      9.7     40.1
    5      0.408D-04      0.204D-04      -290.39963096    806.697738   -0.08210   -0.06790    1.19022    4      9.3     49.4
    6      0.352D-04      0.146D-04      -290.39965567    806.667781   -0.08303   -0.06900    1.21046    5      9.4     58.7
    7      0.381D-04      0.628D-05      -290.39967487    806.675305   -0.08379   -0.07094    1.23005    6      9.2     67.9
    8      0.179D-04      0.307D-05      -290.39967913    806.666714   -0.08380   -0.07177    1.23940    7      9.4     77.3
    9      0.769D-05      0.189D-05      -290.39967985    806.668725   -0.08398   -0.07210    1.24232    8      9.0     86.4
   10      0.272D-05      0.946D-06      -290.39968006    806.669109   -0.08390   -0.07215    1.24123    9      8.8     95.2
   11      0.252D-05      0.594D-06      -290.39968018    806.669379   -0.08374   -0.07209    1.23941    9      9.0    104.2
   12      0.168D-05      0.262D-06      -290.39968022    806.669680   -0.08364   -0.07206    1.23817    9      8.6    112.7
   13      0.624D-06      0.107D-06      -290.39968022    806.669684   -0.08360   -0.07207    1.23781    9      8.2    120.9
   14      0.243D-06      0.609D-07      -290.39968022    806.669775   -0.08359   -0.07207    1.23769    9      8.0    129.0

 Final alpha occupancy:  28
 Final beta  occupancy:  27

 !UKS STATE  1.1 Energy              -290.399680220653
 Nuclear energy                       274.16887391
 One-electron energy                 -932.63667519
 Two-electron energy                  403.33488731
 Density functional                   -35.26676626     B88=-41.90687563 DIRAC=-37.66241208 LYP= -1.76195035 VWN5= -3.44022661
 Virial quotient                       -1.00521268
 !UKS STATE  1.1 Dipole moment         -0.08358655    -0.07206853     1.23769178
 Dipole moment /Debye                  -0.21244190    -0.18316794     3.14569267

 Orbital energies for positive spin:

         1.1          2.1          3.1          4.1          5.1          6.1          7.1          8.1          9.1         10.1
    -14.358436   -10.264153   -10.191320   -10.177068   -10.169987   -10.169921   -10.167633    -0.938553    -0.828325    -0.745132

        11.1         12.1         13.1         14.1         15.1         16.1         17.1         18.1         19.1         20.1
     -0.694524    -0.635732    -0.573413    -0.487108    -0.472953    -0.458358    -0.443932    -0.422937    -0.396326    -0.391590

        21.1         22.1         23.1         24.1         25.1         26.1         27.1         28.1         29.1         30.1
     -0.387923    -0.372917    -0.371185    -0.371012    -0.360657    -0.337909    -0.334151    -0.326971    -0.003641    -0.002135

 Orbital energies for negative spin:

         1.1          2.1          3.1          4.1          5.1          6.1          7.1          8.1          9.1         10.1
    -14.354793   -10.249110   -10.190015   -10.176952   -10.169944   -10.169887   -10.167581    -0.918710    -0.826045    -0.744467

        11.1         12.1         13.1         14.1         15.1         16.1         17.1         18.1         19.1         20.1
     -0.694030    -0.634810    -0.568117    -0.479096    -0.457912    -0.442806    -0.422323    -0.419222    -0.395175    -0.391114

        21.1         22.1         23.1         24.1         25.1         26.1         27.1         28.1         29.1         30.1
     -0.372165    -0.363547    -0.363323    -0.359277    -0.338138    -0.334270    -0.328561    -0.234492     0.012912     0.015602


 HOMO     28.1    -0.326971 =      -8.8973eV
 LUMO    -28.1    -0.234492 =      -6.3808eV
 LUMO-HOMO         0.092479 =       2.5165eV

 EXPECTATION VALUE OF S**2:             0.75895602

 Occupation number threshold for pseudo-canonical orbitals: 1.9990 (occupied), 0.0010 (virtual)

 Number of pseudo-canonical occupied orbitals per symmetry:   24
 Number of active natural orbitals per symmetry:               7

 Natural orbitals saved to record    2206.2 (Orbital set 3)

 Orbital spaces for UNO-CAS (Min. occupation: 0.020  Max. occupation: 1.980):

 Closed:       27
 Active:        1


 **********************************************************************************************************************************
 DATASETS  * FILE   NREC   LENGTH (MB)   RECORD NAMES
              1      19       33.38       500      610      700      900      950      970     1001      129      960     1100   
                                          VAR    BASINP    GEOM    SYMINP    ZMAT    AOBASIS   BASIS     P2S    ABASIS      S 
                                         1400     1410     1200     1210     1080     1600     1650     1700     1800   
                                           T        V       H0       H01     AOSYM     SMH    MOLCAS    OPER     GRID   

              2      15       39.91       700     1000      520     2100     1800     2200      520(1)  2201      520(2)  2202   
                                         GEOM     BASIS   MCVARS     RHF     GRID      UKS    MCVARS     UKS    MCVARS     UKS  
                                         1001     2203     2204     2205     2206   
                                         BASIS     UKS      UKS      UKS      UKS  

 PROGRAMS   *        TOTAL   UKS-SCF   UKS-SCF    DF-UKS    DF-UKS       INT    DF-UKS      OPTG    DF-UKS      OPTG    DF-UKS
 CPU TIMES  *      1244.28    129.02     55.19    128.54      4.79      0.20      3.01    691.03     28.61    197.44      3.05
 REAL TIME  *      1261.21 SEC
 DISK USED  *        73.38 MB (local),      293.50 MB (total)
 SF USED    *        32.62 MB
 GA USED    *         3.27 MB       (max)       2.02 MB       (current)
 **********************************************************************************************************************************

 UB3LYP/TZVP//CF-UKS/SVP energy=   -290.399680220653

         UKS-SCF         UKS-SCF          DF-UKS          DF-UKS          DF-UKS    OPTG(DF-UKS)          DF-UKS    OPTG(DF-UKS)
   -290.39968022   -290.22184502   -290.22209912   -290.19250920   -289.87017155   -289.90697247   -289.90552609   -289.87153369
 **********************************************************************************************************************************
 Molpro calculation terminated with 2 warning(s)
