
 Primary working directories    : /mnt/storage/home/lb17101/scratch/1379484/molpro.rDlrIvH0eW
 Secondary working directories  : /mnt/storage/home/lb17101/scratch/1379484/molpro.rDlrIvH0eW
 Wavefunction directory         : /mnt/storage/home/lb17101/optimizations/7/
 Main file repository           : /mnt/storage/home/lb17101/optimizations/7/

 id        : simonbennie

 Nodes                   nprocs
 compute071.bc4.acrc.priv    4

 Using customized tuning parameters: mindgm=1; mindgv=20; mindgc=4; mindgr=1; noblas=0; minvec=7
 default implementation of scratch files=sf  


 Variables initialized (924), CPU time= 0.01 sec
 memory,536,m
 
 geomtyp=xyz
 
 nosym
 noorient
 gdirect
 angstrom
 
 geometry=input.xyz
 Including file /mnt/storage/home/lb17101/optimizations/7/input.xyz
 
 set,charge=0
 
 basis=svp
 df-hf
 {cf-uks,pbe;}
 {optg,method=slrf,maxiter=50;
 constraint,2.200,angstrom,bond,atoms=[H7,C1]
 constraint,1.200,angstrom,bond,atoms=[H7,C17]
 constraint,180,deg,angle,atoms=[C1,H7,C17]
 {slopt;}}
 {cf-uks,pbe0;}
 {optg,method=slrf,maxiter=20;
 constraint,2.200,angstrom,bond,atoms=[H7,C1]
 constraint,1.200,angstrom,bond,atoms=[H7,C17]
 constraint,180,deg,angle,atoms=[C1,H7,C17]
 {slopt;}}
 {cf-uks,pbe;}
 basis=tzvp
 {cf-uks,pbe;}
 {cf-uks,pbe0;}
 {uks,pbe0;}
 {uks,b3lyp;}
 Commands  initialized (760), CPU time= 0.01 sec, 616 directives.
 Default parameters read. Elapsed time= 0.35 sec

 Checking input...
 Passed
1


                                         ***  PROGRAM SYSTEM MOLPRO  ***
                                       Copyright, TTI GmbH Stuttgart, 2015
                                    Version 2018.1 linked Oct 16 2018 14:32:03


 **********************************************************************************************************************************
 LABEL *                                                                                 
  64 bit mpp version                                                                     DATE: 10-Nov-18          TIME: 03:27:47  
 **********************************************************************************************************************************

 SHA1:             d673ad554fd0a1ae99daa449513f8b88cca0f763
 **********************************************************************************************************************************
 SETTING GEOMTYP        =    XYZ

 Variable memory set to  536000000 words,  buffer space 

 ZSYMEL=NOSYM
 ZUNIT=ANG

 SETTING CHARGE         =     0.00000000D+00                                  
 SETTING BASIS          =    SVP


 Recomputing integrals since basis changed


 Using spherical harmonics

 Library entry C      S def2-SVP             selected for orbital group  1
 Library entry C      P def2-SVP             selected for orbital group  1
 Library entry C      D def2-SVP             selected for orbital group  1
 Library entry H      S def2-SVP             selected for orbital group  2
 Library entry H      P def2-SVP             selected for orbital group  2
 Library entry N      S def2-SVP             selected for orbital group  8
 Library entry N      P def2-SVP             selected for orbital group  8
 Library entry N      D def2-SVP             selected for orbital group  8


 PROGRAM * SEWARD (Integral evaluation for generally contracted gaussian basis sets)     Author: Roland Lindh, 1990

 Geometry written to block  1 of record 700


 Point group  C1  



 ATOMIC COORDINATES

 NR  ATOM    CHARGE       X              Y              Z

   1  C0      6.00  -15.316925113    4.888078256   -0.767052243
   2  C1      6.00  -12.509659000    4.644678157   -1.070390898
   3  H2      1.00  -16.346413757    3.266393148   -1.611352563
   4  H3      1.00  -16.060070410    6.659028964   -1.611398073
   5  H4      1.00  -15.867278179    4.939078915    1.276322047
   6  C5      6.00  -10.928940534    6.951542313   -0.623723353
   7  C6      6.00  -11.391119286    2.048705088   -0.721610816
   8  H7      1.00  -12.064532823    4.811752729   -5.409853371
   9  H8      1.00  -11.858594393    8.684827474   -1.350707090
  10  H9      1.00   -9.024283094    6.819447243   -1.489688335
  11  H10     1.00  -10.607924720    7.281743571    1.443810111
  12  H11     1.00  -12.564834386    0.660594741   -1.783784990
  13  H12     1.00  -11.651586181    1.480313562    1.306983776
  14  C13     6.00   -8.601100060    1.708416740   -1.418172702
  15  H14     1.00   -8.227734962    2.222762924   -3.417429662
  16  H15     1.00   -8.014177585   -0.286184374   -1.167620133
  17  H16     1.00   -7.341877758    2.878713852   -0.220497868
  18  C17     6.00  -11.862435348    4.823883071   -7.478668950
  19  N18     7.00  -11.637187328    4.827537747   -9.674272220

 Bond lengths in Bohr (Angstrom)

 1-2  2.834078506  1-3  2.098226034  1-4  2.097963589  1-5  2.116806098  2-6  2.831926023
     ( 1.499729759)     ( 1.110333401)     ( 1.110194521)     ( 1.120165547)     ( 1.498590715)

  2- 7  2.848131811   6- 9  2.096911801   6-10  2.096440894   6-11  2.118201749   7-12  2.105391044
       ( 1.507166448)       ( 1.109637938)       ( 1.109388745)       ( 1.120904093)       ( 1.114124961)

  7-13  2.122759513   7-14  2.895721310   8-18  2.078698735  14-15  2.097851731  14-16  2.094203473
       ( 1.123315958)       ( 1.532349726)       ( 1.099999999)       ( 1.110135328)       ( 1.108204753)

 14-17  2.095151819  18-19  2.207130206
       ( 1.108706596)       ( 1.167963007)

 Bond angles

  1-2-6  117.77855146   1-2-7  117.01248036   2-1-3  112.12069309   2-1-4  112.35172672

  2- 1- 5  111.27971143   2- 6- 9  111.78876771   2- 6-10  112.99419310   2- 6-11  111.44020680

  2- 7-12  108.67630802   2- 7-13  108.23366762   2- 7-14  117.13216098   3- 1- 4  108.46167851

  3- 1- 5  106.22951316   4- 1- 5  106.02553003   6- 2- 7  120.26137390   7-14-15  111.83345378

  7-14-16  110.68168460   7-14-17  112.08183597   8-18-19  179.63297686   9- 6-10  108.15949919

  9- 6-11  106.06536737  10- 6-11  105.98101855  12- 7-13  103.72019587  12- 7-14  109.77304899

 13- 7-14  108.45956817  15-14-16  107.31683745  15-14-17  107.50922167  16-14-17  107.16800153

 NUCLEAR CHARGE:                   55
 NUMBER OF PRIMITIVE AOS:         259
 NUMBER OF SYMMETRY AOS:          252
 NUMBER OF CONTRACTIONS:          158   (  158A   )
 NUMBER OF CORE ORBITALS:           7   (    7A   )
 NUMBER OF VALENCE ORBITALS:       40   (   40A   )


 NUCLEAR REPULSION ENERGY  275.70817015


 Eigenvalues of metric

         1 0.193E-02 0.310E-02 0.390E-02 0.405E-02 0.652E-02 0.110E-01 0.215E-01 0.232E-01


 OPERATOR DM      FOR CENTER  0  COORDINATES:    0.000000    0.000000    0.000000


 **********************************************************************************************************************************
 DATASETS  * FILE   NREC   LENGTH (MB)   RECORD NAMES
              1      18       31.21       500      610      700      900      950      970     1000      129      960     1100   
                                          VAR    BASINP    GEOM    SYMINP    ZMAT    AOBASIS   BASIS     P2S    ABASIS      S 
                                         1400     1410     1200     1210     1080     1600     1650     1700   
                                           T        V       H0       H01     AOSYM     SMH    MOLCAS    OPER   

 PROGRAMS   *        TOTAL       INT
 CPU TIMES  *         0.44      0.31
 REAL TIME  *         1.14 SEC
 DISK USED  *        31.83 MB (local),      127.32 MB (total)
 GA USED    *         0.00 MB       (max)       0.00 MB       (current)
 **********************************************************************************************************************************


 PROGRAM * RHF-SCF (OPEN SHELL)       Authors: W. Meyer, H.-J. Werner


 NUMBER OF ELECTRONS:      28+   27-    SPACE SYMMETRY=1    SPIN SYMMETRY: Doublet 
 CONVERGENCE THRESHOLDS:    1.00E-06 (Density)    1.00E-07 (Energy)
 INTEGRAL THRESHOLDS:       1.00E-11 (Initial)    1.00E-11 (Final)
 MAX. NUMBER OF ITERATIONS:       60
 INTERPOLATION TYPE:            DIIS
 INTERPOLATION STEPS:              2 (START)      1 (STEP)
 LEVEL SHIFTS:                 -0.60 (CLOSED) -0.30 (OPEN) 




 Basis set DEF2-SVP/JKFIT generated.     Number of basis functions:   560 

 Orbital guess generated from atomic densities. Full valence occupancy:   28
 Using density fitting in orbital guess

 Coulomb and exchange fitting
 Thresholds for fitting:       THRAO_COUL= 1.0D-14    THRAO_EXCH= 1.0D-12    THRMO= 1.0D-11    THRPROD= 1.0D-11    THRASM= 1.0D-11
                               THR2HLF=    1.0D-11

 Molecular orbital dump at record        2100.2

 Initial alpha occupancy:  28
 Initial beta  occupancy:  27
 Wave function symmetry:    1

 ITERATION   DDIFF            GRAD            ENERGY        2-EL.EN.            DIPOLE MOMENTS         DIIS   CPU(IT)  CPU(TOT)  ORB.
    1      0.000D+00      0.000D+00      -288.25653108    743.427118   -0.20611   -0.03282    2.24955    0      0.2      0.5     start
    2      0.000D+00      0.404D-02      -288.33743391    740.463678   -0.12968   -0.03912    1.76432    1      0.2      0.7     diag,B
    3      0.326D-02      0.159D-02      -288.35408585    740.537927   -0.13062   -0.04387    1.76760    2      0.2      0.9     diag,B
    4      0.172D-02      0.766D-03      -288.36085477    740.506910   -0.11869   -0.04677    1.67918    3      0.2      1.1     diag,B
    5      0.163D-02      0.217D-03      -288.36155294    740.466718   -0.11622   -0.04505    1.65893    4      0.2      1.3     diag,B
    6      0.673D-03      0.760D-04      -288.36165427    740.440907   -0.11505   -0.04372    1.64661    5      0.2      1.5     diag,B
    7      0.303D-03      0.227D-04      -288.36166362    740.433141   -0.11464   -0.04323    1.64196    6      0.2      1.7     fixocc
    8      0.786D-04      0.773D-05      -288.36166489    740.432495   -0.11448   -0.04309    1.64001    7      0.2      1.9     diag,B
    9      0.316D-04      0.272D-05      -288.36166507    740.432757   -0.11445   -0.04307    1.63943    8      0.2      2.1     diag,B
   10      0.174D-04      0.804D-06      -288.36166509    740.432894   -0.11445   -0.04308    1.63939    9      0.2      2.3     orth
   11      0.584D-05      0.243D-06      -288.36166509    740.432896   -0.11445   -0.04308    1.63942    9      0.2      2.5     diag,B
   12      0.155D-05      0.737D-07      -288.36166509    740.432889   -0.11445   -0.04308    1.63944    9      0.2      2.6     diag,B
   13      0.311D-06      0.320D-07      -288.36166509    740.432885   -0.11445   -0.04308    1.63944    0      0.2      2.8     orth

 Final alpha occupancy:  28
 Final beta  occupancy:  27

 !RHF STATE  1.1 Energy              -288.361665089848
 Nuclear energy                       275.70817015
 One-electron energy                 -934.28627784
 Two-electron energy                  370.21644260
 Virial quotient                       -1.00680784
 !RHF STATE  1.1 Dipole moment         -0.11445169    -0.04308226     1.63943652
 Dipole moment /Debye                  -0.29088811    -0.10949701     4.16675908

 Orbital energies:

         1.1          2.1          3.1          4.1          5.1          6.1          7.1          8.1          9.1         10.1
    -15.592641   -11.291335   -11.246750   -11.244969   -11.243934   -11.242577   -11.239168    -1.205717    -1.088407    -0.997104

        11.1         12.1         13.1         14.1         15.1         16.1         17.1         18.1         19.1         20.1
     -0.940315    -0.861368    -0.781930    -0.724005    -0.631077    -0.624398    -0.598168    -0.575224    -0.565807    -0.547432

        21.1         22.1         23.1         24.1         25.1         26.1         27.1         28.1         29.1         30.1
     -0.545110    -0.525552    -0.501852    -0.488453    -0.484725    -0.481223    -0.480751    -0.353407     0.152478     0.161665


 HOMO     28.1    -0.353407 =      -9.6167eV
 LUMO     29.1     0.152478 =       4.1492eV
 LUMO-HOMO         0.505885 =      13.7658eV


 **********************************************************************************************************************************
 DATASETS  * FILE   NREC   LENGTH (MB)   RECORD NAMES
              1      18       31.21       500      610      700      900      950      970     1000      129      960     1100   
                                          VAR    BASINP    GEOM    SYMINP    ZMAT    AOBASIS   BASIS     P2S    ABASIS      S 
                                         1400     1410     1200     1210     1080     1600     1650     1700   
                                           T        V       H0       H01     AOSYM     SMH    MOLCAS    OPER   

              2       4        3.88       700     1000      520     2100   
                                         GEOM     BASIS   MCVARS     RHF  

 PROGRAMS   *        TOTAL     DF-HF       INT
 CPU TIMES  *         3.30      2.86      0.31
 REAL TIME  *         4.17 SEC
 DISK USED  *        38.78 MB (local),      155.11 MB (total)
 SF USED    *        34.96 MB
 GA USED    *         3.27 MB       (max)       0.00 MB       (current)
 **********************************************************************************************************************************

 Density functional group PBE=PBEX+PBEC
 Functional: PBEX(Automatically generated (new) PBEX)                          Gradient terms: 1
 Functional: PBEC(Automatically generated (new) PBEC)                          Gradient terms: 1
 Use libxcgrid:  F
 Use grid at  1800.2

 Functional: PBEX                      Factor:  1.0000
 Functional: PBEC                      Factor:  1.0000

 Generated new metagrid on record  1800.2 with target accuracy 1.0D-06 and 65784 points in CPU time    0.4
 Computed new grid on record 1800.1 in CPU time    0.5
  129907 words reserved for DFT integration

 PROGRAM * UKS-SCF (Unrestricted Kohn-Sham)     Authors: W. Meyer, H.-J. Werner, P.J. Knowles, 1993

 NUMBER OF ELECTRONS:      28+   27-    SPACE SYMMETRY=1    SPIN SYMMETRY: Doublet 
 CONVERGENCE THRESHOLDS:    1.00E-06 (Density)    1.00E-06 (Energy)
 INTEGRAL THRESHOLDS:       1.00E-11 (Initial)    1.00E-11 (Final)
 MAX. NUMBER OF ITERATIONS:       60
 INTERPOLATION TYPE:            DIIS
 INTERPOLATION STEPS:              2 (START)      1 (STEP)
 LEVEL SHIFTS:                 -0.20 (ALPHA)  -0.20 (BETA) 



 Use fine grid record 1800.2 for energy threshold  1.0D-06

 Basis set DEF2-SVP/JFIT generated.      Number of basis functions:   475 
 Coulomb fitting
 Screening thresholds:    THRAO_COUL= 1.0D-14    THRAO= 1.0D-12    THROV= 1.0D-12

 Reserved 1 MW to cache 100.0% of significant integrals (4 MW global). CPU: 0.1 sec

 Molecular orbitals read from record     2100.2  Type=RHF/CANONICAL (state 1.1)

 Molecular orbital dump at record        2200.2

 Initial alpha occupation  28
 Initial beta  occupation  27

 ITERATION    DDIFF          GRAD             ENERGY        2-EL.EN.            DIPOLE MOMENTS         DIIS  CPU(IT) CPU(TOT)
    1      0.000D+00      0.000D+00      -289.87050375    823.934242   -0.11445   -0.04308    1.63944    0      0.2      0.3
    2      0.429D-02      0.217D-02      -289.91259013    827.062708   -0.10690   -0.04937    1.55566    1      0.2      0.5
    3      0.153D-02      0.457D-03      -289.91660101    825.696081   -0.10381   -0.04674    1.54245    2      0.2      0.6
    4      0.834D-03      0.208D-03      -289.91769905    826.227713   -0.10385   -0.05030    1.51656    3      0.2      0.8
    5      0.337D-03      0.928D-04      -289.91786070    826.157874   -0.10686   -0.04941    1.56732    4      0.2      1.0
    6      0.190D-03      0.897D-04      -289.91797801    826.078895   -0.10312   -0.04981    1.53883    5      0.2      1.1
    7      0.959D-04      0.220D-04      -289.91799471    826.097063   -0.10419   -0.05056    1.54440    6      0.2      1.3
    8      0.371D-04      0.875D-05      -289.91799683    826.094263   -0.10355   -0.05059    1.54414    7      0.2      1.5
    9      0.129D-04      0.279D-05      -289.91799707    826.096370   -0.10363   -0.05055    1.54438    8      0.2      1.6
   10      0.593D-05      0.130D-05      -289.91799711    826.094738   -0.10360   -0.05061    1.54427    8      0.2      1.8
   11      0.233D-05      0.298D-06      -289.91799711    826.094855   -0.10360   -0.05062    1.54421    8      0.2      2.0
   12      0.668D-06      0.111D-06      -289.91799712    826.094924   -0.10361   -0.05061    1.54421    8      0.2      2.1
   13      0.420D-06      0.682D-07      -289.91799712    826.094860   -0.10360   -0.05061    1.54419    7      0.2      2.3

 Final alpha occupancy:  28
 Final beta  occupancy:  27

 !UKS STATE  1.1 Energy              -289.917997115504
 Nuclear energy                       275.70817015
 One-electron energy                 -935.39562354
 Two-electron energy                  413.04742977
 Density functional                   -43.27797350     PBEX=-41.51503390 PBEC= -1.76293960
 Virial quotient                       -1.01214346
 !UKS STATE  1.1 Dipole moment         -0.10360472    -0.05061141     1.54418668
 Dipole moment /Debye                  -0.26331970    -0.12863294     3.92467397

 Orbital energies for positive spin:

         1.1          2.1          3.1          4.1          5.1          6.1          7.1          8.1          9.1         10.1
    -14.001646    -9.936594    -9.924487    -9.912447    -9.907742    -9.906695    -9.901996    -0.811440    -0.743548    -0.670299

        11.1         12.1         13.1         14.1         15.1         16.1         17.1         18.1         19.1         20.1
     -0.629061    -0.571142    -0.522383    -0.480687    -0.418081    -0.416680    -0.394820    -0.376360    -0.351639    -0.348992

        21.1         22.1         23.1         24.1         25.1         26.1         27.1         28.1         29.1         30.1
     -0.332703    -0.317068    -0.310681    -0.308824    -0.308464    -0.305407    -0.303193    -0.161479    -0.017647    -0.014435

 Orbital energies for negative spin:

         1.1          2.1          3.1          4.1          5.1          6.1          7.1          8.1          9.1         10.1
    -14.001645    -9.935992    -9.913073    -9.912263    -9.908386    -9.907369    -9.901869    -0.811127    -0.731794    -0.667411

        11.1         12.1         13.1         14.1         15.1         16.1         17.1         18.1         19.1         20.1
     -0.626776    -0.568035    -0.519294    -0.469213    -0.413309    -0.409254    -0.389743    -0.370902    -0.347691    -0.347279

        21.1         22.1         23.1         24.1         25.1         26.1         27.1         28.1         29.1         30.1
     -0.331599    -0.313815    -0.310378    -0.308083    -0.308056    -0.302630    -0.299344    -0.096959    -0.016958    -0.013646


 HOMO     28.1    -0.161479 =      -4.3941eV
 LUMO    -28.1    -0.096959 =      -2.6384eV
 LUMO-HOMO         0.064520 =       1.7557eV

 EXPECTATION VALUE OF S**2:             0.75315631

 Occupation number threshold for pseudo-canonical orbitals: 1.9990 (occupied), 0.0010 (virtual)

 Number of pseudo-canonical occupied orbitals per symmetry:   27
 Number of active natural orbitals per symmetry:               1

 Natural orbitals saved to record    2200.2 (Orbital set 3)

 Orbital spaces for UNO-CAS (Min. occupation: 0.020  Max. occupation: 1.980):

 Closed:       27
 Active:        1


 **********************************************************************************************************************************
 DATASETS  * FILE   NREC   LENGTH (MB)   RECORD NAMES
              1      19       31.21       500      610      700      900      950      970     1000      129      960     1100   
                                          VAR    BASINP    GEOM    SYMINP    ZMAT    AOBASIS   BASIS     P2S    ABASIS      S 
                                         1400     1410     1200     1210     1080     1600     1650     1700     1800   
                                           T        V       H0       H01     AOSYM     SMH    MOLCAS    OPER     GRID   

              2       6        7.61       700     1000      520     2100     1800     2200   
                                         GEOM     BASIS   MCVARS     RHF     GRID      UKS  

 PROGRAMS   *        TOTAL    DF-UKS     DF-HF       INT
 CPU TIMES  *         6.11      2.81      2.86      0.31
 REAL TIME  *         7.15 SEC
 DISK USED  *        38.89 MB (local),      155.54 MB (total)
 SF USED    *        34.96 MB
 GA USED    *         3.27 MB       (max)       2.17 MB       (current)
 **********************************************************************************************************************************


 PROGRAM * OPT (Geometry optimization)     Authors: F. Eckert and H.-J. Werner


 BFGS update of hessian


********** USER DEFINED INT/FIX/CONSTRAINTS ****************

List of primitive internal coordinates

     N      Name     Type   Natoms   Atom list

     1    Bo0001     Bond        2      H7   C1  
     2    Bo0002     Bond        2      H7   C17 
     3    An0001     Angle       3      C1   H7   C17 

List of user defined internal/fixed coordinates and constraints

- - - - - - - - - - - - - - - - - - - - - - - - - - - - - - - - - 
    N      Name   Type      Pname     Coeff       Value   Unit
- - - - - - - - - - - - - - - - - - - - - - - - - - - - - - - - - 
    1    Cns001    Con     Bo0001     1.000     2.20000 Angstrom
- - - - - - - - - - - - - - - - - - - - - - - - - - - - - - - - - 
    2    Cns002    Con     Bo0002     1.000     1.20000 Angstrom
- - - - - - - - - - - - - - - - - - - - - - - - - - - - - - - - - 
    3    Cns003    Con     An0001     1.000   180.00000   Degree
- - - - - - - - - - - - - - - - - - - - - - - - - - - - - - - - - 


******************************************************************



 *** Long output written to logfile /mnt/storage/home/lb17101/optimizations/7/7_2.20_1.20.log ***


 Geometry optimization using default procedure for command CF-UKS-SCF

 Geometry written to block  1 of record 700

 SLAPAF optimizer by R. Lindh and Ignacio F. Galvan entered

 Constraints section
ConstraintsConstraintsConstraintsConstraintsConstraintsConstraintsConstraintsConstraintsConstraintsConstraints
ConstraintsConstraintsConstraintsConstraintsConstraintsConstraintsConstraintsConstraintsConstraintsConstraints
Constraints                                                                                        Constraints
Constraints                                 C O N S T R A I N T S                                  Constraints
Constraints                                                                                        Constraints

************************************************************************************************************************
BO0001 = BOND       H7    C1
BO0002 = BOND       H7    C17
AN0001 = ANGLE      C1    H7    C17
VALUES
BO0001 =      2.20000000 ANGSTROM
BO0002 =      1.20000000 ANGSTROM
AN0001 =    180.00000000 DEGREE
************************************************************************************************************************


 *************************************************************
 * Values of the primitive constraints                       *
 *************************************************************
 BO0001   : Bond Length=  2.310086 / Angstrom  4.365431 / bohr
 BO0002   : Bond Length=  1.100000 / Angstrom  2.078699 / bohr
  Valence angle close to end in range of definition
 AN0001   : Angle=      178.1204   / Degree    3.108788 / rad

 *******************************************
 * Values of the constraints   / au or rad *
 *******************************************
   Label        C         C0
 Cns001      4.365431  4.157397
 Cns002      2.078699  2.267671
 Cns003      3.108788  3.141593


 ITER.   ENERGY(OLD)    ENERGY(NEW)      DE          GRADMAX     GRADNORM    GRADRMS     STEPMAX     STEPLEN     STEPRMS   CPU-time
   1  -289.91799712  -289.91671372     0.00128339  0.00120714  0.00190236  0.00025197  0.10410134  0.26034647  0.00456748      3.59

 Constraints section
ConstraintsConstraintsConstraintsConstraintsConstraintsConstraintsConstraintsConstraintsConstraintsConstraints
ConstraintsConstraintsConstraintsConstraintsConstraintsConstraintsConstraintsConstraintsConstraintsConstraints
Constraints                                                                                        Constraints
Constraints                                 C O N S T R A I N T S                                  Constraints
Constraints                                                                                        Constraints

************************************************************************************************************************
BO0001 = BOND       H7    C1
BO0002 = BOND       H7    C17
AN0001 = ANGLE      C1    H7    C17
VALUES
BO0001 =      2.20000000 ANGSTROM
BO0002 =      1.20000000 ANGSTROM
AN0001 =    180.00000000 DEGREE
************************************************************************************************************************


 *************************************************************
 * Values of the primitive constraints                       *
 *************************************************************
 BO0001   : Bond Length=  2.251737 / Angstrom  4.255166 / bohr
 BO0002   : Bond Length=  1.153004 / Angstrom  2.178861 / bohr
  Valence angle close to end in range of definition
 AN0001   : Angle=      178.1810   / Degree    3.109845 / rad

 *******************************************
 * Values of the constraints   / au or rad *
 *******************************************
   Label        C         C0
 Cns001      4.255166  4.157397
 Cns002      2.178861  2.267671
 Cns003      3.109845  3.141593

   2  -289.91671372  -289.91358502     0.00312870  0.03087674  0.04093830  0.00542241  0.29370737  0.53801446  0.00943885      7.11

 Constraints section
ConstraintsConstraintsConstraintsConstraintsConstraintsConstraintsConstraintsConstraintsConstraintsConstraints
ConstraintsConstraintsConstraintsConstraintsConstraintsConstraintsConstraintsConstraintsConstraintsConstraints
Constraints                                                                                        Constraints
Constraints                                 C O N S T R A I N T S                                  Constraints
Constraints                                                                                        Constraints

************************************************************************************************************************
BO0001 = BOND       H7    C1
BO0002 = BOND       H7    C17
AN0001 = ANGLE      C1    H7    C17
VALUES
BO0001 =      2.20000000 ANGSTROM
BO0002 =      1.20000000 ANGSTROM
AN0001 =    180.00000000 DEGREE
************************************************************************************************************************


 *************************************************************
 * Values of the primitive constraints                       *
 *************************************************************
 BO0001   : Bond Length=  2.200000 / Angstrom  4.157397 / bohr
 BO0002   : Bond Length=  1.200000 / Angstrom  2.267672 / bohr
  Valence angle close to end in range of definition
 AN0001   : Angle=      179.6650   / Degree    3.135746 / rad

 *******************************************
 * Values of the constraints   / au or rad *
 *******************************************
   Label        C         C0
 Cns001      4.157397  4.157397
 Cns002      2.267672  2.267671
 Cns003      3.135746  3.141593

   3  -289.91358502  -289.91360252    -0.00001750  0.04563876  0.06314843  0.00836421  0.04582451  0.08781707  0.00154065     10.21

 Constraints section
ConstraintsConstraintsConstraintsConstraintsConstraintsConstraintsConstraintsConstraintsConstraintsConstraints
ConstraintsConstraintsConstraintsConstraintsConstraintsConstraintsConstraintsConstraintsConstraintsConstraints
Constraints                                                                                        Constraints
Constraints                                 C O N S T R A I N T S                                  Constraints
Constraints                                                                                        Constraints

************************************************************************************************************************
BO0001 = BOND       H7    C1
BO0002 = BOND       H7    C17
AN0001 = ANGLE      C1    H7    C17
VALUES
BO0001 =      2.20000000 ANGSTROM
BO0002 =      1.20000000 ANGSTROM
AN0001 =    180.00000000 DEGREE
************************************************************************************************************************


 *************************************************************
 * Values of the primitive constraints                       *
 *************************************************************
 BO0001   : Bond Length=  2.200000 / Angstrom  4.157397 / bohr
 BO0002   : Bond Length=  1.200000 / Angstrom  2.267671 / bohr
  Valence angle close to end in range of definition
 AN0001   : Angle=      179.7442   / Degree    3.137129 / rad

 *******************************************
 * Values of the constraints   / au or rad *
 *******************************************
   Label        C         C0
 Cns001      4.157397  4.157397
 Cns002      2.267671  2.267671
 Cns003      3.137129  3.141593

   4  -289.91360252  -289.91363766    -0.00003514  0.04586439  0.06327170  0.00838054  0.06327920  0.13464244  0.00236215     13.46

 Constraints section
ConstraintsConstraintsConstraintsConstraintsConstraintsConstraintsConstraintsConstraintsConstraintsConstraints
ConstraintsConstraintsConstraintsConstraintsConstraintsConstraintsConstraintsConstraintsConstraintsConstraints
Constraints                                                                                        Constraints
Constraints                                 C O N S T R A I N T S                                  Constraints
Constraints                                                                                        Constraints

************************************************************************************************************************
BO0001 = BOND       H7    C1
BO0002 = BOND       H7    C17
AN0001 = ANGLE      C1    H7    C17
VALUES
BO0001 =      2.20000000 ANGSTROM
BO0002 =      1.20000000 ANGSTROM
AN0001 =    180.00000000 DEGREE
************************************************************************************************************************


 *************************************************************
 * Values of the primitive constraints                       *
 *************************************************************
 BO0001   : Bond Length=  2.200000 / Angstrom  4.157397 / bohr
 BO0002   : Bond Length=  1.200000 / Angstrom  2.267671 / bohr
  Valence angle close to end in range of definition
 AN0001   : Angle=      179.8553   / Degree    3.139067 / rad

 *******************************************
 * Values of the constraints   / au or rad *
 *******************************************
   Label        C         C0
 Cns001      4.157397  4.157397
 Cns002      2.267671  2.267671
 Cns003      3.139067  3.141593

   5  -289.91363766  -289.91367225    -0.00003459  0.04599449  0.06334847  0.00839071  0.01631532  0.03148341  0.00055234     16.55

 Constraints section
ConstraintsConstraintsConstraintsConstraintsConstraintsConstraintsConstraintsConstraintsConstraintsConstraints
ConstraintsConstraintsConstraintsConstraintsConstraintsConstraintsConstraintsConstraintsConstraintsConstraints
Constraints                                                                                        Constraints
Constraints                                 C O N S T R A I N T S                                  Constraints
Constraints                                                                                        Constraints

************************************************************************************************************************
BO0001 = BOND       H7    C1
BO0002 = BOND       H7    C17
AN0001 = ANGLE      C1    H7    C17
VALUES
BO0001 =      2.20000000 ANGSTROM
BO0002 =      1.20000000 ANGSTROM
AN0001 =    180.00000000 DEGREE
************************************************************************************************************************


 *************************************************************
 * Values of the primitive constraints                       *
 *************************************************************
 BO0001   : Bond Length=  2.200000 / Angstrom  4.157397 / bohr
 BO0002   : Bond Length=  1.200000 / Angstrom  2.267671 / bohr
  Valence angle close to end in range of definition
 AN0001   : Angle=      179.9531   / Degree    3.140773 / rad

 *******************************************
 * Values of the constraints   / au or rad *
 *******************************************
   Label        C         C0
 Cns001      4.157397  4.157397
 Cns002      2.267671  2.267671
 Cns003      3.140773  3.141593

   6  -289.91367225  -289.91366647     0.00000577  0.04583494  0.06321806  0.00837344  0.00702298  0.01830396  0.00032112     19.39

 Constraints section
ConstraintsConstraintsConstraintsConstraintsConstraintsConstraintsConstraintsConstraintsConstraintsConstraints
ConstraintsConstraintsConstraintsConstraintsConstraintsConstraintsConstraintsConstraintsConstraintsConstraints
Constraints                                                                                        Constraints
Constraints                                 C O N S T R A I N T S                                  Constraints
Constraints                                                                                        Constraints

************************************************************************************************************************
BO0001 = BOND       H7    C1
BO0002 = BOND       H7    C17
AN0001 = ANGLE      C1    H7    C17
VALUES
BO0001 =      2.20000000 ANGSTROM
BO0002 =      1.20000000 ANGSTROM
AN0001 =    180.00000000 DEGREE
************************************************************************************************************************


 *************************************************************
 * Values of the primitive constraints                       *
 *************************************************************
 BO0001   : Bond Length=  2.200000 / Angstrom  4.157397 / bohr
 BO0002   : Bond Length=  1.200000 / Angstrom  2.267671 / bohr
  Valence angle close to end in range of definition
 AN0001   : Angle=      179.9025   / Degree    3.139891 / rad

 *******************************************
 * Values of the constraints   / au or rad *
 *******************************************
   Label        C         C0
 Cns001      4.157397  4.157397
 Cns002      2.267671  2.267671
 Cns003      3.139891  3.141593

 Freezing grid
   7  -289.91366647  -289.91367394    -0.00000746  0.04565384  0.06308517  0.00835583  0.00414515  0.00883067  0.00015492     22.61

 Constraints section
ConstraintsConstraintsConstraintsConstraintsConstraintsConstraintsConstraintsConstraintsConstraintsConstraints
ConstraintsConstraintsConstraintsConstraintsConstraintsConstraintsConstraintsConstraintsConstraintsConstraints
Constraints                                                                                        Constraints
Constraints                                 C O N S T R A I N T S                                  Constraints
Constraints                                                                                        Constraints

************************************************************************************************************************
BO0001 = BOND       H7    C1
BO0002 = BOND       H7    C17
AN0001 = ANGLE      C1    H7    C17
VALUES
BO0001 =      2.20000000 ANGSTROM
BO0002 =      1.20000000 ANGSTROM
AN0001 =    180.00000000 DEGREE
************************************************************************************************************************


 *************************************************************
 * Values of the primitive constraints                       *
 *************************************************************
 BO0001   : Bond Length=  2.200000 / Angstrom  4.157397 / bohr
 BO0002   : Bond Length=  1.200000 / Angstrom  2.267671 / bohr
  Valence angle close to end in range of definition
 AN0001   : Angle=      179.9901   / Degree    3.141420 / rad

 *******************************************
 * Values of the constraints   / au or rad *
 *******************************************
   Label        C         C0
 Cns001      4.157397  4.157397
 Cns002      2.267671  2.267671
 Cns003      3.141420  3.141593

   8  -289.91367394  -289.91367413    -0.00000019  0.04581943  0.06321020  0.00837240  0.01269424  0.02576666  0.00045205     25.11

 Constraints section
ConstraintsConstraintsConstraintsConstraintsConstraintsConstraintsConstraintsConstraintsConstraintsConstraints
ConstraintsConstraintsConstraintsConstraintsConstraintsConstraintsConstraintsConstraintsConstraintsConstraints
Constraints                                                                                        Constraints
Constraints                                 C O N S T R A I N T S                                  Constraints
Constraints                                                                                        Constraints

************************************************************************************************************************
BO0001 = BOND       H7    C1
BO0002 = BOND       H7    C17
AN0001 = ANGLE      C1    H7    C17
VALUES
BO0001 =      2.20000000 ANGSTROM
BO0002 =      1.20000000 ANGSTROM
AN0001 =    180.00000000 DEGREE
************************************************************************************************************************


 *************************************************************
 * Values of the primitive constraints                       *
 *************************************************************
 BO0001   : Bond Length=  2.200000 / Angstrom  4.157397 / bohr
 BO0002   : Bond Length=  1.200000 / Angstrom  2.267671 / bohr
  Valence angle close to end in range of definition
 AN0001   : Angle=      179.9154   / Degree    3.140116 / rad

 *******************************************
 * Values of the constraints   / au or rad *
 *******************************************
   Label        C         C0
 Cns001      4.157397  4.157397
 Cns002      2.267671  2.267671
 Cns003      3.140116  3.141593

 Geometry section
 Geometry section
   9  -289.91367413  -289.91367384     0.00000030  0.00013970  0.00021680  0.00003129  0.02001733  0.03985376  0.00069919     27.60

 END OF GEOMETRY OPTIMIZATION.

 Current geometry (xyz format, in Angstrom)

   19
 CF-UKS-SCF000/SVP  ENERGY=-289.91367384
 C         -8.0776344492        2.5915833698       -0.4887942397
 C         -6.5871776094        2.4574994660       -0.5796939388
 H         -8.6070507578        1.7354522261       -0.9567191780
 H         -8.4452812611        3.5301457949       -0.9539011271
 H         -8.4151782842        2.6217248562        0.5787614761
 C         -5.7565913062        3.6737257906       -0.3032345355
 C         -6.0068848096        1.0823872652       -0.3713924933
 H         -6.4709513546        2.5266944157       -2.7755317098
 H         -6.2324932630        4.5953668956       -0.6966635955
 H         -4.7335569550        3.6041169579       -0.7258920581
 H         -5.6262690260        3.8337111825        0.7981983885
 H         -6.6203293257        0.3459305856       -0.9384947409
 H         -6.1671106902        0.7945978591        0.7022409161
 C         -4.5244643842        0.8957389532       -0.7112204373
 H         -4.3076799115        1.1674350235       -1.7653400700
 H         -4.2211183310       -0.1609861025       -0.5729094063
 H         -3.8676016939        1.5120185824       -0.0647940693
 C         -6.4080182167        2.5647941785       -3.9732745154
 N         -6.3366883706        2.5978026998       -5.1401246657

 **********************************************************************************************************************************

 Geometry written to block  1 of record 700


 **********************************************************************************************************************************
 DATASETS  * FILE   NREC   LENGTH (MB)   RECORD NAMES
              1      19       31.21       500      610      700      900      950      970     1000      129      960     1100   
                                          VAR    BASINP    GEOM    SYMINP    ZMAT    AOBASIS   BASIS     P2S    ABASIS      S 
                                         1400     1410     1200     1210     1080     1600     1650     1700     1800   
                                           T        V       H0       H01     AOSYM     SMH    MOLCAS    OPER     GRID   

              2       7        7.75       700     1000      520     2100     1800     2200      520(1)
                                         GEOM     BASIS   MCVARS     RHF     GRID      UKS    MCVARS    

 PROGRAMS   *        TOTAL      OPTG    DF-UKS     DF-HF       INT
 CPU TIMES  *        33.72     27.61      2.81      2.86      0.31
 REAL TIME  *        36.12 SEC
 DISK USED  *        42.42 MB (local),      169.67 MB (total)
 SF USED    *        34.96 MB
 GA USED    *         3.27 MB       (max)       2.18 MB       (current)
 **********************************************************************************************************************************

 Density functional group PBE0=PBEX+PBEC
 Functional: PBEX(Automatically generated (new) PBEX)                          Gradient terms: 1
 Functional: PBEC(Automatically generated (new) PBEC)                          Gradient terms: 1
 Use libxcgrid:  F
 Use grid at  1800.2


 Exact exchange will be calculated, factor:  0.2500

 Functional: PBEX                      Factor:  0.7500
 Functional: PBEC                      Factor:  1.0000

  129907 words reserved for DFT integration

 PROGRAM * UKS-SCF (Unrestricted Kohn-Sham)     Authors: W. Meyer, H.-J. Werner, P.J. Knowles, 1993

 NUMBER OF ELECTRONS:      28+   27-    SPACE SYMMETRY=1    SPIN SYMMETRY: Doublet 
 CONVERGENCE THRESHOLDS:    1.00E-06 (Density)    1.00E-06 (Energy)
 INTEGRAL THRESHOLDS:       1.00E-11 (Initial)    1.00E-11 (Final)
 MAX. NUMBER OF ITERATIONS:       60
 INTERPOLATION TYPE:            DIIS
 INTERPOLATION STEPS:              2 (START)      1 (STEP)
 LEVEL SHIFTS:                 -0.20 (ALPHA)  -0.20 (BETA) 



 Use fine grid record 1800.2 for energy threshold  1.0D-06

 Coulomb fitting
 Screening thresholds:    THRAO_COUL= 1.0D-14    THRAO= 1.0D-12    THROV= 1.0D-12

 Reserved 1 MW to cache 100.0% of significant integrals (4 MW global). CPU: 0.1 sec

 Molecular orbitals read from record     2200.2  Type=UKS/ALPHA (state 1.1)
 Molecular orbitals read from record     2200.2  Type=UKS/BETA (state 1.1)

 Molecular orbital dump at record        2201.2

 Initial alpha occupation  28
 Initial beta  occupation  27

 Direct Fock-matrix evaluation.        Author: H.-J. Werner (1996)

 Integral Threshold:                  0.1D-09

 ITERATION   DDIFF            GRAD            ENERGY        2-EL.EN.            DIPOLE MOMENTS         DIIS   CPU(IT)  CPU(TOT)
    1      0.000D+00      0.000D+00      -289.95208298    804.517110   -0.05371   -0.08329    1.70968    0      2.5      2.6
    2      0.147D-02      0.575D-03      -289.95516153    804.096170   -0.05589   -0.08246    1.73692    1      1.9      4.5
    3      0.577D-03      0.126D-03      -289.95555666    804.266711   -0.05676   -0.08268    1.74636    2      1.9      6.4
    4      0.286D-03      0.497D-04      -289.95565685    804.205910   -0.05719   -0.08247    1.75376    3      1.9      8.3
    5      0.107D-03      0.277D-04      -289.95567666    804.246379   -0.05705   -0.08245    1.74298    4      1.9     10.2
    6      0.455D-04      0.182D-04      -289.95568261    804.265099   -0.05761   -0.08251    1.74760    5      1.8     12.0
    7      0.290D-04      0.625D-05      -289.95568405    804.254436   -0.05749   -0.08233    1.74520    6      1.8     13.8
    8      0.103D-04      0.191D-05      -289.95568418    804.254811   -0.05757   -0.08229    1.74479    7      1.8     15.6
    9      0.426D-05      0.811D-06      -289.95568420    804.255120   -0.05756   -0.08228    1.74458    8      1.7     17.4
   10      0.121D-05      0.255D-06      -289.95568421    804.255208   -0.05756   -0.08226    1.74458    8      1.7     19.1
   11      0.483D-06      0.137D-06      -289.95568421    804.255135   -0.05756   -0.08226    1.74456    9      1.6     20.7
   12      0.243D-06      0.923D-07      -289.95568421    804.255168   -0.05755   -0.08226    1.74456    8      1.6     22.3

 Final alpha occupancy:  28
 Final beta  occupancy:  27

 !UKS STATE  1.1 Energy              -289.955684210264
 Nuclear energy                       275.33573816
 One-electron energy                 -934.53956265
 Two-electron energy                  402.12758404
 Density functional                   -32.87944376     PBEX=-41.48806262 PBEC= -1.76339679
 Virial quotient                       -1.01261287
 !UKS STATE  1.1 Dipole moment         -0.05755488    -0.08226364     1.74456303
 Dipole moment /Debye                  -0.14628032    -0.20907962     4.43394651

 Orbital energies for positive spin:

         1.1          2.1          3.1          4.1          5.1          6.1          7.1          8.1          9.1         10.1
    -14.399205   -10.280039   -10.268341   -10.251896   -10.247019   -10.246872   -10.240571    -0.914627    -0.847488    -0.764696

        11.1         12.1         13.1         14.1         15.1         16.1         17.1         18.1         19.1         20.1
     -0.719466    -0.655827    -0.573393    -0.553687    -0.484675    -0.482683    -0.459069    -0.438731    -0.411996    -0.408603

        21.1         22.1         23.1         24.1         25.1         26.1         27.1         28.1         29.1         30.1
     -0.391343    -0.377646    -0.374437    -0.361788    -0.359178    -0.356397    -0.356262    -0.215185     0.027165     0.031843

 Orbital energies for negative spin:

         1.1          2.1          3.1          4.1          5.1          6.1          7.1          8.1          9.1         10.1
    -14.399285   -10.278839   -10.254004   -10.252825   -10.247976   -10.247859   -10.240384    -0.914064    -0.831386    -0.761145

        11.1         12.1         13.1         14.1         15.1         16.1         17.1         18.1         19.1         20.1
     -0.717018    -0.651961    -0.564421    -0.539518    -0.478630    -0.471997    -0.451867    -0.430647    -0.407147    -0.405212

        21.1         22.1         23.1         24.1         25.1         26.1         27.1         28.1         29.1         30.1
     -0.389869    -0.376920    -0.370151    -0.358052    -0.356216    -0.355707    -0.354461    -0.064898     0.028269     0.033070


 HOMO     28.1    -0.215185 =      -5.8555eV
 LUMO    -28.1    -0.064898 =      -1.7660eV
 LUMO-HOMO         0.150287 =       4.0895eV

 EXPECTATION VALUE OF S**2:             0.75471103

 Occupation number threshold for pseudo-canonical orbitals: 1.9990 (occupied), 0.0010 (virtual)

 Number of pseudo-canonical occupied orbitals per symmetry:   26
 Number of active natural orbitals per symmetry:               3

 Natural orbitals saved to record    2201.2 (Orbital set 3)

 Orbital spaces for UNO-CAS (Min. occupation: 0.020  Max. occupation: 1.980):

 Closed:       27
 Active:        1


 **********************************************************************************************************************************
 DATASETS  * FILE   NREC   LENGTH (MB)   RECORD NAMES
              1      19       31.21       500      610      700      900      950      970     1000      129      960     1100   
                                          VAR    BASINP    GEOM    SYMINP    ZMAT    AOBASIS   BASIS     P2S    ABASIS      S 
                                         1400     1410     1200     1210     1080     1600     1650     1700     1800   
                                           T        V       H0       H01     AOSYM     SMH    MOLCAS    OPER     GRID   

              2       8       11.26       700     1000      520     2100     1800     2200      520(1)  2201   
                                         GEOM     BASIS   MCVARS     RHF     GRID      UKS    MCVARS     UKS  

 PROGRAMS   *        TOTAL    DF-UKS      OPTG    DF-UKS     DF-HF       INT
 CPU TIMES  *        56.03     22.31     27.61      2.81      2.86      0.31
 REAL TIME  *        59.15 SEC
 DISK USED  *        42.53 MB (local),      170.13 MB (total)
 SF USED    *        34.96 MB
 GA USED    *         3.27 MB       (max)       2.18 MB       (current)
 **********************************************************************************************************************************


 PROGRAM * OPT (Geometry optimization)     Authors: F. Eckert and H.-J. Werner


 BFGS update of hessian


********** USER DEFINED INT/FIX/CONSTRAINTS ****************

List of primitive internal coordinates

     N      Name     Type   Natoms   Atom list

     1    Bo0001     Bond        2      H7   C1  
     2    Bo0002     Bond        2      H7   C17 
     3    An0001     Angle       3      C1   H7   C17 

List of user defined internal/fixed coordinates and constraints

- - - - - - - - - - - - - - - - - - - - - - - - - - - - - - - - - 
    N      Name   Type      Pname     Coeff       Value   Unit
- - - - - - - - - - - - - - - - - - - - - - - - - - - - - - - - - 
    1    Cns001    Con     Bo0001     1.000     2.20000 Angstrom
- - - - - - - - - - - - - - - - - - - - - - - - - - - - - - - - - 
    2    Cns002    Con     Bo0002     1.000     1.20000 Angstrom
- - - - - - - - - - - - - - - - - - - - - - - - - - - - - - - - - 
    3    Cns003    Con     An0001     1.000   180.00000   Degree
- - - - - - - - - - - - - - - - - - - - - - - - - - - - - - - - - 


******************************************************************



 Geometry optimization using default procedure for command CF-UKS-SCF

 Geometry written to block  1 of record 700

 SLAPAF optimizer by R. Lindh and Ignacio F. Galvan entered

 Constraints section
ConstraintsConstraintsConstraintsConstraintsConstraintsConstraintsConstraintsConstraintsConstraintsConstraints
ConstraintsConstraintsConstraintsConstraintsConstraintsConstraintsConstraintsConstraintsConstraintsConstraints
Constraints                                                                                        Constraints
Constraints                                 C O N S T R A I N T S                                  Constraints
Constraints                                                                                        Constraints

************************************************************************************************************************
BO0001 = BOND       H7    C1
BO0002 = BOND       H7    C17
AN0001 = ANGLE      C1    H7    C17
VALUES
BO0001 =      2.20000000 ANGSTROM
BO0002 =      1.20000000 ANGSTROM
AN0001 =    180.00000000 DEGREE
************************************************************************************************************************


 *************************************************************
 * Values of the primitive constraints                       *
 *************************************************************
 BO0001   : Bond Length=  2.200000 / Angstrom  4.157397 / bohr
 BO0002   : Bond Length=  1.200000 / Angstrom  2.267671 / bohr
  Valence angle close to end in range of definition
 AN0001   : Angle=      179.9721   / Degree    3.141105 / rad

 *******************************************
 * Values of the constraints   / au or rad *
 *******************************************
   Label        C         C0
 Cns001      4.157397  4.157397
 Cns002      2.267671  2.267671
 Cns003      3.141105  3.141593


 ITER.   ENERGY(OLD)    ENERGY(NEW)      DE          GRADMAX     GRADNORM    GRADRMS     STEPMAX     STEPLEN     STEPRMS   CPU-time
   1  -289.95568421  -289.95665706    -0.00097285  0.05160772  0.06745362  0.00893445  0.03377991  0.09921938  0.00174069     25.36

 Constraints section
ConstraintsConstraintsConstraintsConstraintsConstraintsConstraintsConstraintsConstraintsConstraintsConstraints
ConstraintsConstraintsConstraintsConstraintsConstraintsConstraintsConstraintsConstraintsConstraintsConstraints
Constraints                                                                                        Constraints
Constraints                                 C O N S T R A I N T S                                  Constraints
Constraints                                                                                        Constraints

************************************************************************************************************************
BO0001 = BOND       H7    C1
BO0002 = BOND       H7    C17
AN0001 = ANGLE      C1    H7    C17
VALUES
BO0001 =      2.20000000 ANGSTROM
BO0002 =      1.20000000 ANGSTROM
AN0001 =    180.00000000 DEGREE
************************************************************************************************************************


 *************************************************************
 * Values of the primitive constraints                       *
 *************************************************************
 BO0001   : Bond Length=  2.200000 / Angstrom  4.157397 / bohr
 BO0002   : Bond Length=  1.200000 / Angstrom  2.267671 / bohr
  Valence angle close to end in range of definition
 AN0001   : Angle=      179.5950   / Degree    3.134524 / rad

 *******************************************
 * Values of the constraints   / au or rad *
 *******************************************
   Label        C         C0
 Cns001      4.157397  4.157397
 Cns002      2.267671  2.267671
 Cns003      3.134524  3.141593

   2  -289.95665706  -289.95672778    -0.00007073  0.05751605  0.07794912  0.01032461  0.02007101  0.04476754  0.00078540     48.71

 Constraints section
ConstraintsConstraintsConstraintsConstraintsConstraintsConstraintsConstraintsConstraintsConstraintsConstraints
ConstraintsConstraintsConstraintsConstraintsConstraintsConstraintsConstraintsConstraintsConstraintsConstraints
Constraints                                                                                        Constraints
Constraints                                 C O N S T R A I N T S                                  Constraints
Constraints                                                                                        Constraints

************************************************************************************************************************
BO0001 = BOND       H7    C1
BO0002 = BOND       H7    C17
AN0001 = ANGLE      C1    H7    C17
VALUES
BO0001 =      2.20000000 ANGSTROM
BO0002 =      1.20000000 ANGSTROM
AN0001 =    180.00000000 DEGREE
************************************************************************************************************************


 *************************************************************
 * Values of the primitive constraints                       *
 *************************************************************
 BO0001   : Bond Length=  2.200000 / Angstrom  4.157397 / bohr
 BO0002   : Bond Length=  1.200000 / Angstrom  2.267671 / bohr
  Valence angle close to end in range of definition
 AN0001   : Angle=      179.9228   / Degree    3.140245 / rad

 *******************************************
 * Values of the constraints   / au or rad *
 *******************************************
   Label        C         C0
 Cns001      4.157397  4.157397
 Cns002      2.267671  2.267671
 Cns003      3.140245  3.141593

   3  -289.95672778  -289.95674042    -0.00001264  0.05549593  0.07617670  0.01008985  0.01074961  0.02138916  0.00037525     70.18

 Constraints section
ConstraintsConstraintsConstraintsConstraintsConstraintsConstraintsConstraintsConstraintsConstraintsConstraints
ConstraintsConstraintsConstraintsConstraintsConstraintsConstraintsConstraintsConstraintsConstraintsConstraints
Constraints                                                                                        Constraints
Constraints                                 C O N S T R A I N T S                                  Constraints
Constraints                                                                                        Constraints

************************************************************************************************************************
BO0001 = BOND       H7    C1
BO0002 = BOND       H7    C17
AN0001 = ANGLE      C1    H7    C17
VALUES
BO0001 =      2.20000000 ANGSTROM
BO0002 =      1.20000000 ANGSTROM
AN0001 =    180.00000000 DEGREE
************************************************************************************************************************


 *************************************************************
 * Values of the primitive constraints                       *
 *************************************************************
 BO0001   : Bond Length=  2.200000 / Angstrom  4.157397 / bohr
 BO0002   : Bond Length=  1.200000 / Angstrom  2.267671 / bohr
  Valence angle close to end in range of definition
 AN0001   : Angle=      179.7622   / Degree    3.137443 / rad

 *******************************************
 * Values of the constraints   / au or rad *
 *******************************************
   Label        C         C0
 Cns001      4.157397  4.157397
 Cns002      2.267671  2.267671
 Cns003      3.137443  3.141593

   4  -289.95674042  -289.95673197     0.00000845  0.05407094  0.07509962  0.00994719  0.01319388  0.02006074  0.00035194     91.62

 Constraints section
ConstraintsConstraintsConstraintsConstraintsConstraintsConstraintsConstraintsConstraintsConstraintsConstraints
ConstraintsConstraintsConstraintsConstraintsConstraintsConstraintsConstraintsConstraintsConstraintsConstraints
Constraints                                                                                        Constraints
Constraints                                 C O N S T R A I N T S                                  Constraints
Constraints                                                                                        Constraints

************************************************************************************************************************
BO0001 = BOND       H7    C1
BO0002 = BOND       H7    C17
AN0001 = ANGLE      C1    H7    C17
VALUES
BO0001 =      2.20000000 ANGSTROM
BO0002 =      1.20000000 ANGSTROM
AN0001 =    180.00000000 DEGREE
************************************************************************************************************************


 *************************************************************
 * Values of the primitive constraints                       *
 *************************************************************
 BO0001   : Bond Length=  2.200000 / Angstrom  4.157397 / bohr
 BO0002   : Bond Length=  1.200000 / Angstrom  2.267671 / bohr
  Valence angle close to end in range of definition
 AN0001   : Angle=      179.8812   / Degree    3.139518 / rad

 *******************************************
 * Values of the constraints   / au or rad *
 *******************************************
   Label        C         C0
 Cns001      4.157397  4.157397
 Cns002      2.267671  2.267671
 Cns003      3.139518  3.141593

   5  -289.95673197  -289.95674214    -0.00001017  0.05368030  0.07482089  0.00991027  0.05377470  0.08319035  0.00145948    115.09

 Constraints section
ConstraintsConstraintsConstraintsConstraintsConstraintsConstraintsConstraintsConstraintsConstraintsConstraints
ConstraintsConstraintsConstraintsConstraintsConstraintsConstraintsConstraintsConstraintsConstraintsConstraints
Constraints                                                                                        Constraints
Constraints                                 C O N S T R A I N T S                                  Constraints
Constraints                                                                                        Constraints

************************************************************************************************************************
BO0001 = BOND       H7    C1
BO0002 = BOND       H7    C17
AN0001 = ANGLE      C1    H7    C17
VALUES
BO0001 =      2.20000000 ANGSTROM
BO0002 =      1.20000000 ANGSTROM
AN0001 =    180.00000000 DEGREE
************************************************************************************************************************


 *************************************************************
 * Values of the primitive constraints                       *
 *************************************************************
 BO0001   : Bond Length=  2.200000 / Angstrom  4.157397 / bohr
 BO0002   : Bond Length=  1.200000 / Angstrom  2.267671 / bohr
  Valence angle close to end in range of definition
 AN0001   : Angle=      178.9400   / Degree    3.123091 / rad

 *******************************************
 * Values of the constraints   / au or rad *
 *******************************************
   Label        C         C0
 Cns001      4.157397  4.157397
 Cns002      2.267671  2.267671
 Cns003      3.123091  3.141593

   6  -289.95674214  -289.95675476    -0.00001262  0.05484602  0.07564948  0.01002002  0.06376580  0.11278669  0.00197871    140.38

 Constraints section
ConstraintsConstraintsConstraintsConstraintsConstraintsConstraintsConstraintsConstraintsConstraintsConstraints
ConstraintsConstraintsConstraintsConstraintsConstraintsConstraintsConstraintsConstraintsConstraintsConstraints
Constraints                                                                                        Constraints
Constraints                                 C O N S T R A I N T S                                  Constraints
Constraints                                                                                        Constraints

************************************************************************************************************************
BO0001 = BOND       H7    C1
BO0002 = BOND       H7    C17
AN0001 = ANGLE      C1    H7    C17
VALUES
BO0001 =      2.20000000 ANGSTROM
BO0002 =      1.20000000 ANGSTROM
AN0001 =    180.00000000 DEGREE
************************************************************************************************************************


 *************************************************************
 * Values of the primitive constraints                       *
 *************************************************************
 BO0001   : Bond Length=  2.200000 / Angstrom  4.157397 / bohr
 BO0002   : Bond Length=  1.200000 / Angstrom  2.267671 / bohr
  Valence angle close to end in range of definition
 AN0001   : Angle=      179.9004   / Degree    3.139855 / rad

 *******************************************
 * Values of the constraints   / au or rad *
 *******************************************
   Label        C         C0
 Cns001      4.157397  4.157397
 Cns002      2.267671  2.267671
 Cns003      3.139855  3.141593

   7  -289.95675476  -289.95672683     0.00002793  0.05356358  0.07475434  0.00990145  0.00672456  0.01842036  0.00032316    161.85

 Constraints section
ConstraintsConstraintsConstraintsConstraintsConstraintsConstraintsConstraintsConstraintsConstraintsConstraints
ConstraintsConstraintsConstraintsConstraintsConstraintsConstraintsConstraintsConstraintsConstraintsConstraints
Constraints                                                                                        Constraints
Constraints                                 C O N S T R A I N T S                                  Constraints
Constraints                                                                                        Constraints

************************************************************************************************************************
BO0001 = BOND       H7    C1
BO0002 = BOND       H7    C17
AN0001 = ANGLE      C1    H7    C17
VALUES
BO0001 =      2.20000000 ANGSTROM
BO0002 =      1.20000000 ANGSTROM
AN0001 =    180.00000000 DEGREE
************************************************************************************************************************


 *************************************************************
 * Values of the primitive constraints                       *
 *************************************************************
 BO0001   : Bond Length=  2.200000 / Angstrom  4.157397 / bohr
 BO0002   : Bond Length=  1.200000 / Angstrom  2.267671 / bohr
  Valence angle close to end in range of definition
 AN0001   : Angle=      179.9594   / Degree    3.140884 / rad

 *******************************************
 * Values of the constraints   / au or rad *
 *******************************************
   Label        C         C0
 Cns001      4.157397  4.157397
 Cns002      2.267671  2.267671
 Cns003      3.140884  3.141593

   8  -289.95672683  -289.95673555    -0.00000872  0.05454392  0.07545728  0.00999456  0.01979239  0.03901529  0.00068448    183.36

 Constraints section
ConstraintsConstraintsConstraintsConstraintsConstraintsConstraintsConstraintsConstraintsConstraintsConstraints
ConstraintsConstraintsConstraintsConstraintsConstraintsConstraintsConstraintsConstraintsConstraintsConstraints
Constraints                                                                                        Constraints
Constraints                                 C O N S T R A I N T S                                  Constraints
Constraints                                                                                        Constraints

************************************************************************************************************************
BO0001 = BOND       H7    C1
BO0002 = BOND       H7    C17
AN0001 = ANGLE      C1    H7    C17
VALUES
BO0001 =      2.20000000 ANGSTROM
BO0002 =      1.20000000 ANGSTROM
AN0001 =    180.00000000 DEGREE
************************************************************************************************************************


 *************************************************************
 * Values of the primitive constraints                       *
 *************************************************************
 BO0001   : Bond Length=  2.200000 / Angstrom  4.157397 / bohr
 BO0002   : Bond Length=  1.200000 / Angstrom  2.267671 / bohr
  Valence angle close to end in range of definition
 AN0001   : Angle=      179.9690   / Degree    3.141052 / rad

 *******************************************
 * Values of the constraints   / au or rad *
 *******************************************
   Label        C         C0
 Cns001      4.157397  4.157397
 Cns002      2.267671  2.267671
 Cns003      3.141052  3.141593

   9  -289.95673555  -289.95673409     0.00000146  0.05411650  0.07513780  0.00995225  0.01708927  0.03648849  0.00064015    204.67

 Constraints section
ConstraintsConstraintsConstraintsConstraintsConstraintsConstraintsConstraintsConstraintsConstraintsConstraints
ConstraintsConstraintsConstraintsConstraintsConstraintsConstraintsConstraintsConstraintsConstraintsConstraints
Constraints                                                                                        Constraints
Constraints                                 C O N S T R A I N T S                                  Constraints
Constraints                                                                                        Constraints

************************************************************************************************************************
BO0001 = BOND       H7    C1
BO0002 = BOND       H7    C17
AN0001 = ANGLE      C1    H7    C17
VALUES
BO0001 =      2.20000000 ANGSTROM
BO0002 =      1.20000000 ANGSTROM
AN0001 =    180.00000000 DEGREE
************************************************************************************************************************


 *************************************************************
 * Values of the primitive constraints                       *
 *************************************************************
 BO0001   : Bond Length=  2.200000 / Angstrom  4.157397 / bohr
 BO0002   : Bond Length=  1.200000 / Angstrom  2.267671 / bohr
  Valence angle close to end in range of definition
 AN0001   : Angle=      179.9505   / Degree    3.140728 / rad

 *******************************************
 * Values of the constraints   / au or rad *
 *******************************************
   Label        C         C0
 Cns001      4.157397  4.157397
 Cns002      2.267671  2.267671
 Cns003      3.140728  3.141593

  10  -289.95673409  -289.95672826     0.00000583  0.05476214  0.07562015  0.01001613  0.02575059  0.06333221  0.00111109    226.27

 Constraints section
ConstraintsConstraintsConstraintsConstraintsConstraintsConstraintsConstraintsConstraintsConstraintsConstraints
ConstraintsConstraintsConstraintsConstraintsConstraintsConstraintsConstraintsConstraintsConstraintsConstraints
Constraints                                                                                        Constraints
Constraints                                 C O N S T R A I N T S                                  Constraints
Constraints                                                                                        Constraints

************************************************************************************************************************
BO0001 = BOND       H7    C1
BO0002 = BOND       H7    C17
AN0001 = ANGLE      C1    H7    C17
VALUES
BO0001 =      2.20000000 ANGSTROM
BO0002 =      1.20000000 ANGSTROM
AN0001 =    180.00000000 DEGREE
************************************************************************************************************************


 *************************************************************
 * Values of the primitive constraints                       *
 *************************************************************
 BO0001   : Bond Length=  2.200000 / Angstrom  4.157397 / bohr
 BO0002   : Bond Length=  1.200000 / Angstrom  2.267671 / bohr
  Valence angle close to end in range of definition
 AN0001   : Angle=      179.9292   / Degree    3.140357 / rad

 *******************************************
 * Values of the constraints   / au or rad *
 *******************************************
   Label        C         C0
 Cns001      4.157397  4.157397
 Cns002      2.267671  2.267671
 Cns003      3.140357  3.141593

  11  -289.95672826  -289.95673374    -0.00000548  0.05427988  0.07525390  0.00996762  0.01233263  0.03200819  0.00056155    245.88

 Constraints section
ConstraintsConstraintsConstraintsConstraintsConstraintsConstraintsConstraintsConstraintsConstraintsConstraints
ConstraintsConstraintsConstraintsConstraintsConstraintsConstraintsConstraintsConstraintsConstraintsConstraints
Constraints                                                                                        Constraints
Constraints                                 C O N S T R A I N T S                                  Constraints
Constraints                                                                                        Constraints

************************************************************************************************************************
BO0001 = BOND       H7    C1
BO0002 = BOND       H7    C17
AN0001 = ANGLE      C1    H7    C17
VALUES
BO0001 =      2.20000000 ANGSTROM
BO0002 =      1.20000000 ANGSTROM
AN0001 =    180.00000000 DEGREE
************************************************************************************************************************


 *************************************************************
 * Values of the primitive constraints                       *
 *************************************************************
 BO0001   : Bond Length=  2.200000 / Angstrom  4.157397 / bohr
 BO0002   : Bond Length=  1.200000 / Angstrom  2.267671 / bohr
  Valence angle close to end in range of definition
 AN0001   : Angle=      179.9779   / Degree    3.141208 / rad

 *******************************************
 * Values of the constraints   / au or rad *
 *******************************************
   Label        C         C0
 Cns001      4.157397  4.157397
 Cns002      2.267671  2.267671
 Cns003      3.141208  3.141593

  12  -289.95673374  -289.95674859    -0.00001485  0.05423435  0.07522844  0.00996425  0.02629687  0.05427691  0.00095223    267.29

 Constraints section
ConstraintsConstraintsConstraintsConstraintsConstraintsConstraintsConstraintsConstraintsConstraintsConstraints
ConstraintsConstraintsConstraintsConstraintsConstraintsConstraintsConstraintsConstraintsConstraintsConstraints
Constraints                                                                                        Constraints
Constraints                                 C O N S T R A I N T S                                  Constraints
Constraints                                                                                        Constraints

************************************************************************************************************************
BO0001 = BOND       H7    C1
BO0002 = BOND       H7    C17
AN0001 = ANGLE      C1    H7    C17
VALUES
BO0001 =      2.20000000 ANGSTROM
BO0002 =      1.20000000 ANGSTROM
AN0001 =    180.00000000 DEGREE
************************************************************************************************************************


 *************************************************************
 * Values of the primitive constraints                       *
 *************************************************************
 BO0001   : Bond Length=  2.200000 / Angstrom  4.157397 / bohr
 BO0002   : Bond Length=  1.200000 / Angstrom  2.267671 / bohr
  Valence angle close to end in range of definition
 AN0001   : Angle=      179.9860   / Degree    3.141348 / rad

 *******************************************
 * Values of the constraints   / au or rad *
 *******************************************
   Label        C         C0
 Cns001      4.157397  4.157397
 Cns002      2.267671  2.267671
 Cns003      3.141348  3.141593

  13  -289.95674859  -289.95674531     0.00000328  0.05370078  0.07483469  0.00991210  0.01245961  0.02740205  0.00048074    288.63

 Constraints section
ConstraintsConstraintsConstraintsConstraintsConstraintsConstraintsConstraintsConstraintsConstraintsConstraints
ConstraintsConstraintsConstraintsConstraintsConstraintsConstraintsConstraintsConstraintsConstraintsConstraints
Constraints                                                                                        Constraints
Constraints                                 C O N S T R A I N T S                                  Constraints
Constraints                                                                                        Constraints

************************************************************************************************************************
BO0001 = BOND       H7    C1
BO0002 = BOND       H7    C17
AN0001 = ANGLE      C1    H7    C17
VALUES
BO0001 =      2.20000000 ANGSTROM
BO0002 =      1.20000000 ANGSTROM
AN0001 =    180.00000000 DEGREE
************************************************************************************************************************


 *************************************************************
 * Values of the primitive constraints                       *
 *************************************************************
 BO0001   : Bond Length=  2.200000 / Angstrom  4.157397 / bohr
 BO0002   : Bond Length=  1.200000 / Angstrom  2.267671 / bohr
  Valence angle close to end in range of definition
 AN0001   : Angle=      179.9837   / Degree    3.141308 / rad

 *******************************************
 * Values of the constraints   / au or rad *
 *******************************************
   Label        C         C0
 Cns001      4.157397  4.157397
 Cns002      2.267671  2.267671
 Cns003      3.141308  3.141593

  14  -289.95674531  -289.95663793     0.00010738  0.05345652  0.07465070  0.00988773  0.29172085  0.60563485  0.01062517    315.83

 Constraints section
ConstraintsConstraintsConstraintsConstraintsConstraintsConstraintsConstraintsConstraintsConstraintsConstraints
ConstraintsConstraintsConstraintsConstraintsConstraintsConstraintsConstraintsConstraintsConstraintsConstraints
Constraints                                                                                        Constraints
Constraints                                 C O N S T R A I N T S                                  Constraints
Constraints                                                                                        Constraints

************************************************************************************************************************
BO0001 = BOND       H7    C1
BO0002 = BOND       H7    C17
AN0001 = ANGLE      C1    H7    C17
VALUES
BO0001 =      2.20000000 ANGSTROM
BO0002 =      1.20000000 ANGSTROM
AN0001 =    180.00000000 DEGREE
************************************************************************************************************************


 *************************************************************
 * Values of the primitive constraints                       *
 *************************************************************
 BO0001   : Bond Length=  2.200000 / Angstrom  4.157397 / bohr
 BO0002   : Bond Length=  1.200000 / Angstrom  2.267671 / bohr
  Valence angle close to end in range of definition
 AN0001   : Angle=      179.9771   / Degree    3.141194 / rad

 *******************************************
 * Values of the constraints   / au or rad *
 *******************************************
   Label        C         C0
 Cns001      4.157397  4.157397
 Cns002      2.267671  2.267671
 Cns003      3.141194  3.141593

  15  -289.95663793  -289.95586638     0.00077155  0.06198038  0.08171016  0.01082277  0.17921219  0.49729630  0.00872450    343.23

 Constraints section
ConstraintsConstraintsConstraintsConstraintsConstraintsConstraintsConstraintsConstraintsConstraintsConstraints
ConstraintsConstraintsConstraintsConstraintsConstraintsConstraintsConstraintsConstraintsConstraintsConstraints
Constraints                                                                                        Constraints
Constraints                                 C O N S T R A I N T S                                  Constraints
Constraints                                                                                        Constraints

************************************************************************************************************************
BO0001 = BOND       H7    C1
BO0002 = BOND       H7    C17
AN0001 = ANGLE      C1    H7    C17
VALUES
BO0001 =      2.20000000 ANGSTROM
BO0002 =      1.20000000 ANGSTROM
AN0001 =    180.00000000 DEGREE
************************************************************************************************************************


 *************************************************************
 * Values of the primitive constraints                       *
 *************************************************************
 BO0001   : Bond Length=  2.200000 / Angstrom  4.157397 / bohr
 BO0002   : Bond Length=  1.200000 / Angstrom  2.267671 / bohr
  Valence angle close to end in range of definition
[...]
   10      0.126D-05      0.180D-06      -290.27004390    807.442776   -0.00963   -0.07267    1.82008    8      7.5     86.5
   11      0.485D-06      0.827D-07      -290.27004390    807.442729   -0.00964   -0.07267    1.82006    9      7.2     93.7
   12      0.242D-06      0.445D-07      -290.27004390    807.442769   -0.00964   -0.07267    1.82006    8      7.0    100.7

 Final alpha occupancy:  28
 Final beta  occupancy:  27

 !UKS STATE  1.1 Energy              -290.270043903685
 Nuclear energy                       276.67509364
 One-electron energy                 -937.67769444
 Two-electron energy                  403.72138450
 Density functional                   -32.98882760     PBEX=-41.64588216 PBEC= -1.75441598
 Virial quotient                       -1.00610344
 !UKS STATE  1.1 Dipole moment         -0.00963529    -0.07267393     1.82006488
 Dipole moment /Debye                  -0.02448886    -0.18470661     4.62584049

 Orbital energies for positive spin:

         1.1          2.1          3.1          4.1          5.1          6.1          7.1          8.1          9.1         10.1
    -14.389790   -10.265655   -10.259481   -10.239243   -10.231909   -10.231256   -10.224720    -0.932768    -0.859590    -0.776635

        11.1         12.1         13.1         14.1         15.1         16.1         17.1         18.1         19.1         20.1
     -0.731169    -0.666561    -0.580333    -0.561818    -0.490314    -0.486931    -0.463019    -0.443556    -0.417196    -0.411774

        21.1         22.1         23.1         24.1         25.1         26.1         27.1         28.1         29.1         30.1
     -0.394607    -0.385216    -0.377531    -0.364124    -0.362931    -0.362436    -0.360284    -0.216871     0.016708     0.018172

 Orbital energies for negative spin:

         1.1          2.1          3.1          4.1          5.1          6.1          7.1          8.1          9.1         10.1
    -14.389838   -10.264515   -10.245643   -10.240004   -10.232712   -10.232032   -10.224542    -0.932130    -0.843648    -0.773129

        11.1         12.1         13.1         14.1         15.1         16.1         17.1         18.1         19.1         20.1
     -0.728867    -0.662739    -0.571147    -0.547220    -0.483253    -0.477674    -0.455932    -0.435704    -0.411107    -0.409492

        21.1         22.1         23.1         24.1         25.1         26.1         27.1         28.1         29.1         30.1
     -0.393115    -0.384405    -0.373139    -0.362397    -0.362305    -0.360012    -0.355958    -0.067602     0.017903     0.019483


 HOMO     28.1    -0.216871 =      -5.9014eV
 LUMO    -28.1    -0.067602 =      -1.8395eV
 LUMO-HOMO         0.149269 =       4.0618eV

 EXPECTATION VALUE OF S**2:             0.75493234

 Occupation number threshold for pseudo-canonical orbitals: 1.9990 (occupied), 0.0010 (virtual)

 Number of pseudo-canonical occupied orbitals per symmetry:   26
 Number of active natural orbitals per symmetry:               3

 Natural orbitals saved to record    2204.2 (Orbital set 3)

 Orbital spaces for UNO-CAS (Min. occupation: 0.020  Max. occupation: 1.980):

 Closed:       27
 Active:        1


 **********************************************************************************************************************************
 DATASETS  * FILE   NREC   LENGTH (MB)   RECORD NAMES
              1      19       33.38       500      610      700      900      950      970     1001      129      960     1100   
                                          VAR    BASINP    GEOM    SYMINP    ZMAT    AOBASIS   BASIS     P2S    ABASIS      S 
                                         1400     1410     1200     1210     1080     1600     1650     1700     1800   
                                           T        V       H0       H01     AOSYM     SMH    MOLCAS    OPER     GRID   

              2      13       27.29       700     1000      520     2100     1800     2200      520(1)  2201      520(2)  2202   
                                         GEOM     BASIS   MCVARS     RHF     GRID      UKS    MCVARS     UKS    MCVARS     UKS  
                                         1001     2203     2204   
                                         BASIS     UKS      UKS  

 PROGRAMS   *        TOTAL    DF-UKS    DF-UKS       INT    DF-UKS      OPTG    DF-UKS      OPTG    DF-UKS     DF-HF       INT
 CPU TIMES  *       643.16    100.76      4.68      0.23      2.22    479.22     22.31     27.61      2.81      2.86      0.31
 REAL TIME  *       649.66 SEC
 DISK USED  *        60.76 MB (local),      243.03 MB (total)
 SF USED    *        34.96 MB
 GA USED    *         3.27 MB       (max)       2.25 MB       (current)
 **********************************************************************************************************************************

 Density functional group PBE0=PBEX+PBEC
 Functional: PBEX(Automatically generated (new) PBEX)                          Gradient terms: 1
 Functional: PBEC(Automatically generated (new) PBEC)                          Gradient terms: 1
 Use libxcgrid:  F
 Use grid at  1800.2


 Exact exchange will be calculated, factor:  0.2500

 Functional: PBEX                      Factor:  0.7500
 Functional: PBEC                      Factor:  1.0000

  234265 words reserved for DFT integration

 PROGRAM * UKS-SCF (Unrestricted Kohn-Sham)     Authors: W. Meyer, H.-J. Werner, P.J. Knowles, 1993

 NUMBER OF ELECTRONS:      28+   27-    SPACE SYMMETRY=1    SPIN SYMMETRY: Doublet 
 CONVERGENCE THRESHOLDS:    1.00E-06 (Density)    1.00E-06 (Energy)
 INTEGRAL THRESHOLDS:       1.00E-11 (Initial)    1.00E-11 (Final)
 MAX. NUMBER OF ITERATIONS:       60
 INTERPOLATION TYPE:            DIIS
 INTERPOLATION STEPS:              2 (START)      1 (STEP)
 LEVEL SHIFTS:                 -0.20 (ALPHA)  -0.20 (BETA) 



 Use fine grid record 1800.2 for energy threshold  1.0D-06
 Molecular orbitals read from record     2204.2  Type=UKS/ALPHA (state 1.1)
 Molecular orbitals read from record     2204.2  Type=UKS/BETA (state 1.1)

 Molecular orbital dump at record        2205.2

 Initial alpha occupation  28
 Initial beta  occupation  27

 Direct Fock-matrix evaluation.        Author: H.-J. Werner (1996)

 Integral Threshold:                  0.1D-10

 ITERATION   DDIFF            GRAD            ENERGY        2-EL.EN.            DIPOLE MOMENTS         DIIS   CPU(IT)  CPU(TOT)
    1      0.000D+00      0.000D+00      -290.26976901    807.443319   -0.00964   -0.07267    1.82006    0     10.3     10.4
    2      0.392D-04      0.864D-05      -290.26977069    807.439874   -0.00967   -0.07266    1.81997    1      9.2     19.6
    3      0.128D-04      0.149D-05      -290.26977079    807.440837   -0.00972   -0.07266    1.81984    2      9.0     28.6
    4      0.474D-05      0.313D-06      -290.26977079    807.440761   -0.00977   -0.07267    1.81985    3      8.8     37.4
    5      0.952D-06      0.134D-06      -290.26977080    807.440950   -0.00978   -0.07267    1.81977    4      8.3     45.7
    6      0.496D-06      0.802D-07      -290.26977080    807.441025   -0.00978   -0.07267    1.81980    5      8.2     53.9

 Final alpha occupancy:  28
 Final beta  occupancy:  27

 !UKS STATE  1.1 Energy              -290.269770796055
 Nuclear energy                       276.67509364
 One-electron energy                 -937.67683618
 Two-electron energy                  403.72051275
 Density functional                   -32.98854101     PBEX=-41.64543714 PBEC= -1.75446315
 Virial quotient                       -1.00611712
 !UKS STATE  1.1 Dipole moment         -0.00978295    -0.07267366     1.81980170
 Dipole moment /Debye                  -0.02486415    -0.18470591     4.62517160

 Orbital energies for positive spin:

         1.1          2.1          3.1          4.1          5.1          6.1          7.1          8.1          9.1         10.1
    -14.389831   -10.265744   -10.259477   -10.239258   -10.231951   -10.231302   -10.224775    -0.932770    -0.859586    -0.776639

        11.1         12.1         13.1         14.1         15.1         16.1         17.1         18.1         19.1         20.1
     -0.731171    -0.666559    -0.580340    -0.561821    -0.490320    -0.486932    -0.463027    -0.443554    -0.417187    -0.411784

        21.1         22.1         23.1         24.1         25.1         26.1         27.1         28.1         29.1         30.1
     -0.394604    -0.385183    -0.377533    -0.364126    -0.362951    -0.362452    -0.360278    -0.216840     0.016689     0.018139

 Orbital energies for negative spin:

         1.1          2.1          3.1          4.1          5.1          6.1          7.1          8.1          9.1         10.1
    -14.389881   -10.264603   -10.245636   -10.240019   -10.232754   -10.232078   -10.224596    -0.932134    -0.843644    -0.773132

        11.1         12.1         13.1         14.1         15.1         16.1         17.1         18.1         19.1         20.1
     -0.728869    -0.662737    -0.571159    -0.547216    -0.483253    -0.477678    -0.455939    -0.435706    -0.411105    -0.409496

        21.1         22.1         23.1         24.1         25.1         26.1         27.1         28.1         29.1         30.1
     -0.393112    -0.384375    -0.373141    -0.362418    -0.362328    -0.360012    -0.355948    -0.067546     0.017883     0.019448


 HOMO     28.1    -0.216840 =      -5.9005eV
 LUMO    -28.1    -0.067546 =      -1.8380eV
 LUMO-HOMO         0.149294 =       4.0625eV

 EXPECTATION VALUE OF S**2:             0.75493296

 Occupation number threshold for pseudo-canonical orbitals: 1.9990 (occupied), 0.0010 (virtual)

 Number of pseudo-canonical occupied orbitals per symmetry:   26
 Number of active natural orbitals per symmetry:               3

 Natural orbitals saved to record    2205.2 (Orbital set 3)

 Orbital spaces for UNO-CAS (Min. occupation: 0.020  Max. occupation: 1.980):

 Closed:       27
 Active:        1


 **********************************************************************************************************************************
 DATASETS  * FILE   NREC   LENGTH (MB)   RECORD NAMES
              1      19       33.38       500      610      700      900      950      970     1001      129      960     1100   
                                          VAR    BASINP    GEOM    SYMINP    ZMAT    AOBASIS   BASIS     P2S    ABASIS      S 
                                         1400     1410     1200     1210     1080     1600     1650     1700     1800   
                                           T        V       H0       H01     AOSYM     SMH    MOLCAS    OPER     GRID   

              2      14       33.14       700     1000      520     2100     1800     2200      520(1)  2201      520(2)  2202   
                                         GEOM     BASIS   MCVARS     RHF     GRID      UKS    MCVARS     UKS    MCVARS     UKS  
                                         1001     2203     2204     2205   
                                         BASIS     UKS      UKS      UKS  

 PROGRAMS   *        TOTAL   UKS-SCF    DF-UKS    DF-UKS       INT    DF-UKS      OPTG    DF-UKS      OPTG    DF-UKS     DF-HF
 CPU TIMES  *       697.14     53.98    100.76      4.68      0.23      2.22    479.22     22.31     27.61      2.81      2.86
 REAL TIME  *       703.69 SEC
 DISK USED  *        66.61 MB (local),      266.45 MB (total)
 SF USED    *        34.96 MB
 GA USED    *         3.27 MB       (max)       2.25 MB       (current)
 **********************************************************************************************************************************

 Density functional group B3LYP=B88+DIRAC+LYP+VWN5
 Functional: B88(Automatically generated (new) B88)                            Gradient terms: 1
 Functional: DIRAC(Automatically generated (new) DIRAC)                        Gradient terms: 0
 Functional: LYP(Automatically generated (new) LYP)                            Gradient terms: 1
 Functional: VWN5(Automatically generated (new) VWN5)                          Gradient terms: 0
 Use libxcgrid:  F
 Use grid at  1800.2


 Exact exchange will be calculated, factor:  0.2000

 Functional: B88                       Factor:  0.7200
 Functional: DIRAC                     Factor:  0.0800
 Functional: LYP                       Factor:  0.8100
 Functional: VWN5                      Factor:  0.1900

  234265 words reserved for DFT integration

 PROGRAM * UKS-SCF (Unrestricted Kohn-Sham)     Authors: W. Meyer, H.-J. Werner, P.J. Knowles, 1993

 NUMBER OF ELECTRONS:      28+   27-    SPACE SYMMETRY=1    SPIN SYMMETRY: Doublet 
 CONVERGENCE THRESHOLDS:    1.00E-06 (Density)    1.00E-06 (Energy)
 INTEGRAL THRESHOLDS:       1.00E-11 (Initial)    1.00E-11 (Final)
 MAX. NUMBER OF ITERATIONS:       60
 INTERPOLATION TYPE:            DIIS
 INTERPOLATION STEPS:              2 (START)      1 (STEP)
 LEVEL SHIFTS:                 -0.20 (ALPHA)  -0.20 (BETA) 



 Use fine grid record 1800.2 for energy threshold  1.0D-06
 Molecular orbitals read from record     2205.2  Type=UKS/ALPHA (state 1.1)
 Molecular orbitals read from record     2205.2  Type=UKS/BETA (state 1.1)

 Molecular orbital dump at record        2206.2

 Initial alpha occupation  28
 Initial beta  occupation  27

 Direct Fock-matrix evaluation.        Author: H.-J. Werner (1996)

 Integral Threshold:                  0.1D-10

 ITERATION   DDIFF            GRAD            ENERGY        2-EL.EN.            DIPOLE MOMENTS         DIIS   CPU(IT)  CPU(TOT)
    1      0.000D+00      0.000D+00      -290.44130746    811.622339   -0.00978   -0.07267    1.81980    0     10.4     10.4
    2      0.103D-02      0.389D-03      -290.44532226    811.985328   -0.00901   -0.07255    1.82715    1      9.6     20.0
    3      0.186D-03      0.624D-04      -290.44551918    811.648482   -0.00818   -0.07219    1.80468    2      9.3     29.3
    4      0.853D-04      0.288D-04      -290.44554826    811.684544   -0.00853   -0.07210    1.81761    3      9.2     38.5
    5      0.401D-04      0.123D-04      -290.44555502    811.690119   -0.00810   -0.07185    1.81195    4      9.2     47.7
    6      0.365D-04      0.440D-05      -290.44555696    811.672814   -0.00792   -0.07164    1.81298    5      9.1     56.9
    7      0.174D-04      0.155D-05      -290.44555741    811.674177   -0.00788   -0.07161    1.81307    6      9.0     65.9
    8      0.658D-05      0.715D-06      -290.44555749    811.672533   -0.00778   -0.07155    1.81327    7      8.9     74.8
    9      0.274D-05      0.261D-06      -290.44555750    811.672713   -0.00778   -0.07154    1.81335    7      8.7     83.4
   10      0.993D-06      0.110D-06      -290.44555751    811.672714   -0.00778   -0.07155    1.81338    8      8.5     91.9
   11      0.349D-06      0.418D-07      -290.44555751    811.672717   -0.00778   -0.07155    1.81339    8      8.1    100.0

 Final alpha occupancy:  28
 Final beta  occupancy:  27

 !UKS STATE  1.1 Energy              -290.445557505288
 Nuclear energy                       276.67509364
 One-electron energy                 -937.68271198
 Two-electron energy                  405.83635855
 Density functional                   -35.27429771     B88=-41.91393538 DIRAC=-37.67427074 LYP= -1.76352038 VWN5= -3.44142670
 Virial quotient                       -1.00569665
 !UKS STATE  1.1 Dipole moment         -0.00778199    -0.07154523     1.81339144
 Dipole moment /Debye                  -0.01977854    -0.18183792     4.60887942

 Orbital energies for positive spin:

         1.1          2.1          3.1          4.1          5.1          6.1          7.1          8.1          9.1         10.1
    -14.322318   -10.213972   -10.202357   -10.186067   -10.179959   -10.179469   -10.172634    -0.907294    -0.833147    -0.753272

        11.1         12.1         13.1         14.1         15.1         16.1         17.1         18.1         19.1         20.1
     -0.709519    -0.646446    -0.564217    -0.544818    -0.474870    -0.471959    -0.448478    -0.430274    -0.405284    -0.399805

        21.1         22.1         23.1         24.1         25.1         26.1         27.1         28.1         29.1         30.1
     -0.383240    -0.371354    -0.366410    -0.353146    -0.350374    -0.349570    -0.349206    -0.204136     0.008903     0.010269

 Orbital energies for negative spin:

         1.1          2.1          3.1          4.1          5.1          6.1          7.1          8.1          9.1         10.1
    -14.322336   -10.212840   -10.189556   -10.186687   -10.180622   -10.180107   -10.172465    -0.906623    -0.819068    -0.750034

        11.1         12.1         13.1         14.1         15.1         16.1         17.1         18.1         19.1         20.1
     -0.707125    -0.642861    -0.556592    -0.531332    -0.468630    -0.463963    -0.442147    -0.423355    -0.399408    -0.397770

        21.1         22.1         23.1         24.1         25.1         26.1         27.1         28.1         29.1         30.1
     -0.381696    -0.370634    -0.362237    -0.350078    -0.349255    -0.348707    -0.345382    -0.078707     0.009759     0.011173


 HOMO     28.1    -0.204136 =      -5.5548eV
 LUMO    -28.1    -0.078707 =      -2.1417eV
 LUMO-HOMO         0.125430 =       3.4131eV

 EXPECTATION VALUE OF S**2:             0.75404530

 Occupation number threshold for pseudo-canonical orbitals: 1.9990 (occupied), 0.0010 (virtual)

 Number of pseudo-canonical occupied orbitals per symmetry:   27
 Number of active natural orbitals per symmetry:               1

 Natural orbitals saved to record    2206.2 (Orbital set 3)

 Orbital spaces for UNO-CAS (Min. occupation: 0.020  Max. occupation: 1.980):

 Closed:       27
 Active:        1


 **********************************************************************************************************************************
 DATASETS  * FILE   NREC   LENGTH (MB)   RECORD NAMES
              1      19       33.38       500      610      700      900      950      970     1001      129      960     1100   
                                          VAR    BASINP    GEOM    SYMINP    ZMAT    AOBASIS   BASIS     P2S    ABASIS      S 
                                         1400     1410     1200     1210     1080     1600     1650     1700     1800   
                                           T        V       H0       H01     AOSYM     SMH    MOLCAS    OPER     GRID   

              2      15       39.00       700     1000      520     2100     1800     2200      520(1)  2201      520(2)  2202   
                                         GEOM     BASIS   MCVARS     RHF     GRID      UKS    MCVARS     UKS    MCVARS     UKS  
                                         1001     2203     2204     2205     2206   
                                         BASIS     UKS      UKS      UKS      UKS  

 PROGRAMS   *        TOTAL   UKS-SCF   UKS-SCF    DF-UKS    DF-UKS       INT    DF-UKS      OPTG    DF-UKS      OPTG    DF-UKS
 CPU TIMES  *       797.20    100.06     53.98    100.76      4.68      0.23      2.22    479.22     22.31     27.61      2.81
 REAL TIME  *       803.83 SEC
 DISK USED  *        72.47 MB (local),      289.87 MB (total)
 SF USED    *        34.96 MB
 GA USED    *         3.27 MB       (max)       2.25 MB       (current)
 **********************************************************************************************************************************

 UB3LYP/TZVP//CF-UKS/SVP energy=   -290.445557505288

         UKS-SCF         UKS-SCF          DF-UKS          DF-UKS          DF-UKS    OPTG(DF-UKS)          DF-UKS    OPTG(DF-UKS)
   -290.44555751   -290.26977080   -290.27004390   -290.23326458   -289.91221218   -289.95664830   -289.95568421   -289.91367384
 **********************************************************************************************************************************
 Molpro calculation terminated with 1 warning(s)
