
 Primary working directories    : /mnt/storage/home/lb17101/scratch/1379473/molpro.EwAs4MmClr
 Secondary working directories  : /mnt/storage/home/lb17101/scratch/1379473/molpro.EwAs4MmClr
 Wavefunction directory         : /mnt/storage/home/lb17101/optimizations/7/
 Main file repository           : /mnt/storage/home/lb17101/optimizations/7/

 id        : simonbennie

 Nodes                   nprocs
 compute073.bc4.acrc.priv    4

 Using customized tuning parameters: mindgm=1; mindgv=20; mindgc=4; mindgr=1; noblas=0; minvec=7
 default implementation of scratch files=sf  


 Variables initialized (924), CPU time= 0.00 sec
 memory,536,m
 
 geomtyp=xyz
 
 nosym
 noorient
 gdirect
 angstrom
 
 geometry=input.xyz
 Including file /mnt/storage/home/lb17101/optimizations/7/input.xyz
 
 set,charge=0
 
 basis=svp
 df-hf
 {cf-uks,pbe;}
 {optg,method=slrf,maxiter=50;
 constraint,2.000,angstrom,bond,atoms=[H7,C1]
 constraint,2.000,angstrom,bond,atoms=[H7,C17]
 constraint,180,deg,angle,atoms=[C1,H7,C17]
 {slopt;}}
 {cf-uks,pbe0;}
 {optg,method=slrf,maxiter=20;
 constraint,2.000,angstrom,bond,atoms=[H7,C1]
 constraint,2.000,angstrom,bond,atoms=[H7,C17]
 constraint,180,deg,angle,atoms=[C1,H7,C17]
 {slopt;}}
 {cf-uks,pbe;}
 basis=tzvp
 {cf-uks,pbe;}
 {cf-uks,pbe0;}
 {uks,pbe0;}
 {uks,b3lyp;}
 Commands  initialized (760), CPU time= 0.00 sec, 616 directives.
 Default parameters read. Elapsed time= 0.05 sec

 Checking input...
 Passed
1


                                         ***  PROGRAM SYSTEM MOLPRO  ***
                                       Copyright, TTI GmbH Stuttgart, 2015
                                    Version 2018.1 linked Oct 16 2018 14:32:03


 **********************************************************************************************************************************
 LABEL *                                                                                 
  64 bit mpp version                                                                     DATE: 10-Nov-18          TIME: 02:58:10  
 **********************************************************************************************************************************

 SHA1:             d673ad554fd0a1ae99daa449513f8b88cca0f763
 **********************************************************************************************************************************
 SETTING GEOMTYP        =    XYZ

 Variable memory set to  536000000 words,  buffer space 

 ZSYMEL=NOSYM
 ZUNIT=ANG

 SETTING CHARGE         =     0.00000000D+00                                  
 SETTING BASIS          =    SVP


 Recomputing integrals since basis changed


 Using spherical harmonics

 Library entry C      S def2-SVP             selected for orbital group  1
 Library entry C      P def2-SVP             selected for orbital group  1
 Library entry C      D def2-SVP             selected for orbital group  1
 Library entry H      S def2-SVP             selected for orbital group  2
 Library entry H      P def2-SVP             selected for orbital group  2
 Library entry N      S def2-SVP             selected for orbital group  8
 Library entry N      P def2-SVP             selected for orbital group  8
 Library entry N      D def2-SVP             selected for orbital group  8


 PROGRAM * SEWARD (Integral evaluation for generally contracted gaussian basis sets)     Author: Roland Lindh, 1990

 Geometry written to block  1 of record 700


 Point group  C1  



 ATOMIC COORDINATES

 NR  ATOM    CHARGE       X              Y              Z

   1  C0      6.00  -15.316925113    4.888078256   -0.767052243
   2  C1      6.00  -12.509659000    4.644678157   -1.070390898
   3  H2      1.00  -16.346413757    3.266393148   -1.611352563
   4  H3      1.00  -16.060070410    6.659028964   -1.611398073
   5  H4      1.00  -15.867278179    4.939078915    1.276322047
   6  C5      6.00  -10.928940534    6.951542313   -0.623723353
   7  C6      6.00  -11.391119286    2.048705088   -0.721610816
   8  H7      1.00  -12.064532823    4.811752729   -5.409853371
   9  H8      1.00  -11.858594393    8.684827474   -1.350707090
  10  H9      1.00   -9.024283094    6.819447243   -1.489688335
  11  H10     1.00  -10.607924720    7.281743571    1.443810111
  12  H11     1.00  -12.564834386    0.660594741   -1.783784990
  13  H12     1.00  -11.651586181    1.480313562    1.306983776
  14  C13     6.00   -8.601100060    1.708416740   -1.418172702
  15  H14     1.00   -8.227734962    2.222762924   -3.417429662
  16  H15     1.00   -8.014177585   -0.286184374   -1.167620133
  17  H16     1.00   -7.341877758    2.878713852   -0.220497868
  18  C17     6.00  -11.862435348    4.823883071   -7.478668950
  19  N18     7.00  -11.637187328    4.827537747   -9.674272220

 Bond lengths in Bohr (Angstrom)

 1-2  2.834078506  1-3  2.098226034  1-4  2.097963589  1-5  2.116806098  2-6  2.831926023
     ( 1.499729759)     ( 1.110333401)     ( 1.110194521)     ( 1.120165547)     ( 1.498590715)

  2- 7  2.848131811   6- 9  2.096911801   6-10  2.096440894   6-11  2.118201749   7-12  2.105391044
       ( 1.507166448)       ( 1.109637938)       ( 1.109388745)       ( 1.120904093)       ( 1.114124961)

  7-13  2.122759513   7-14  2.895721310   8-18  2.078698735  14-15  2.097851731  14-16  2.094203473
       ( 1.123315958)       ( 1.532349726)       ( 1.099999999)       ( 1.110135328)       ( 1.108204753)

 14-17  2.095151819  18-19  2.207130206
       ( 1.108706596)       ( 1.167963007)

 Bond angles

  1-2-6  117.77855146   1-2-7  117.01248036   2-1-3  112.12069309   2-1-4  112.35172672

  2- 1- 5  111.27971143   2- 6- 9  111.78876771   2- 6-10  112.99419310   2- 6-11  111.44020680

  2- 7-12  108.67630802   2- 7-13  108.23366762   2- 7-14  117.13216098   3- 1- 4  108.46167851

  3- 1- 5  106.22951316   4- 1- 5  106.02553003   6- 2- 7  120.26137390   7-14-15  111.83345378

  7-14-16  110.68168460   7-14-17  112.08183597   8-18-19  179.63297686   9- 6-10  108.15949919

  9- 6-11  106.06536737  10- 6-11  105.98101855  12- 7-13  103.72019587  12- 7-14  109.77304899

 13- 7-14  108.45956817  15-14-16  107.31683745  15-14-17  107.50922167  16-14-17  107.16800153

 NUCLEAR CHARGE:                   55
 NUMBER OF PRIMITIVE AOS:         259
 NUMBER OF SYMMETRY AOS:          252
 NUMBER OF CONTRACTIONS:          158   (  158A   )
 NUMBER OF CORE ORBITALS:           7   (    7A   )
 NUMBER OF VALENCE ORBITALS:       40   (   40A   )


 NUCLEAR REPULSION ENERGY  275.70817015


 Eigenvalues of metric

         1 0.193E-02 0.310E-02 0.390E-02 0.405E-02 0.652E-02 0.110E-01 0.215E-01 0.232E-01


 OPERATOR DM      FOR CENTER  0  COORDINATES:    0.000000    0.000000    0.000000


 **********************************************************************************************************************************
 DATASETS  * FILE   NREC   LENGTH (MB)   RECORD NAMES
              1      18       31.21       500      610      700      900      950      970     1000      129      960     1100   
                                          VAR    BASINP    GEOM    SYMINP    ZMAT    AOBASIS   BASIS     P2S    ABASIS      S 
                                         1400     1410     1200     1210     1080     1600     1650     1700   
                                           T        V       H0       H01     AOSYM     SMH    MOLCAS    OPER   

 PROGRAMS   *        TOTAL       INT
 CPU TIMES  *         0.43      0.30
 REAL TIME  *         0.93 SEC
 DISK USED  *        31.83 MB (local),      127.32 MB (total)
 GA USED    *         0.00 MB       (max)       0.00 MB       (current)
 **********************************************************************************************************************************


 PROGRAM * RHF-SCF (OPEN SHELL)       Authors: W. Meyer, H.-J. Werner


 NUMBER OF ELECTRONS:      28+   27-    SPACE SYMMETRY=1    SPIN SYMMETRY: Doublet 
 CONVERGENCE THRESHOLDS:    1.00E-06 (Density)    1.00E-07 (Energy)
 INTEGRAL THRESHOLDS:       1.00E-11 (Initial)    1.00E-11 (Final)
 MAX. NUMBER OF ITERATIONS:       60
 INTERPOLATION TYPE:            DIIS
 INTERPOLATION STEPS:              2 (START)      1 (STEP)
 LEVEL SHIFTS:                 -0.60 (CLOSED) -0.30 (OPEN) 




 Basis set DEF2-SVP/JKFIT generated.     Number of basis functions:   560 

 Orbital guess generated from atomic densities. Full valence occupancy:   28
 Using density fitting in orbital guess

 Coulomb and exchange fitting
 Thresholds for fitting:       THRAO_COUL= 1.0D-14    THRAO_EXCH= 1.0D-12    THRMO= 1.0D-11    THRPROD= 1.0D-11    THRASM= 1.0D-11
                               THR2HLF=    1.0D-11

 Molecular orbital dump at record        2100.2

 Initial alpha occupancy:  28
 Initial beta  occupancy:  27
 Wave function symmetry:    1

 ITERATION   DDIFF            GRAD            ENERGY        2-EL.EN.            DIPOLE MOMENTS         DIIS   CPU(IT)  CPU(TOT)  ORB.
    1      0.000D+00      0.000D+00      -288.25653108    743.427118   -0.20611   -0.03282    2.24955    0      0.2      0.5     start
    2      0.000D+00      0.404D-02      -288.33743391    740.463678   -0.12968   -0.03912    1.76432    1      0.2      0.7     diag,B
    3      0.326D-02      0.159D-02      -288.35408585    740.537927   -0.13062   -0.04387    1.76760    2      0.2      0.9     diag,B
    4      0.172D-02      0.766D-03      -288.36085477    740.506910   -0.11869   -0.04677    1.67918    3      0.2      1.1     diag,B
    5      0.163D-02      0.217D-03      -288.36155294    740.466718   -0.11622   -0.04505    1.65893    4      0.2      1.3     diag,B
    6      0.673D-03      0.760D-04      -288.36165427    740.440907   -0.11505   -0.04372    1.64661    5      0.2      1.5     diag,B
    7      0.303D-03      0.227D-04      -288.36166362    740.433141   -0.11464   -0.04323    1.64196    6      0.2      1.7     fixocc
    8      0.786D-04      0.773D-05      -288.36166489    740.432495   -0.11448   -0.04309    1.64001    7      0.2      1.9     diag,B
    9      0.316D-04      0.272D-05      -288.36166507    740.432757   -0.11445   -0.04307    1.63943    8      0.2      2.1     diag,B
   10      0.174D-04      0.804D-06      -288.36166509    740.432894   -0.11445   -0.04308    1.63939    9      0.2      2.3     orth
   11      0.584D-05      0.243D-06      -288.36166509    740.432896   -0.11445   -0.04308    1.63942    9      0.2      2.5     diag,B
   12      0.155D-05      0.737D-07      -288.36166509    740.432889   -0.11445   -0.04308    1.63944    9      0.2      2.7     diag,B
   13      0.311D-06      0.320D-07      -288.36166509    740.432885   -0.11445   -0.04308    1.63944    0      0.2      2.9     orth

 Final alpha occupancy:  28
 Final beta  occupancy:  27

 !RHF STATE  1.1 Energy              -288.361665089846
 Nuclear energy                       275.70817015
 One-electron energy                 -934.28627784
 Two-electron energy                  370.21644260
 Virial quotient                       -1.00680784
 !RHF STATE  1.1 Dipole moment         -0.11445169    -0.04308226     1.63943652
 Dipole moment /Debye                  -0.29088811    -0.10949701     4.16675908

 Orbital energies:

         1.1          2.1          3.1          4.1          5.1          6.1          7.1          8.1          9.1         10.1
    -15.592641   -11.291335   -11.246750   -11.244969   -11.243934   -11.242577   -11.239168    -1.205717    -1.088407    -0.997104

        11.1         12.1         13.1         14.1         15.1         16.1         17.1         18.1         19.1         20.1
     -0.940315    -0.861368    -0.781930    -0.724005    -0.631077    -0.624398    -0.598168    -0.575224    -0.565807    -0.547432

        21.1         22.1         23.1         24.1         25.1         26.1         27.1         28.1         29.1         30.1
     -0.545110    -0.525552    -0.501852    -0.488453    -0.484725    -0.481223    -0.480751    -0.353407     0.152478     0.161665


 HOMO     28.1    -0.353407 =      -9.6167eV
 LUMO     29.1     0.152478 =       4.1492eV
 LUMO-HOMO         0.505885 =      13.7658eV


 **********************************************************************************************************************************
 DATASETS  * FILE   NREC   LENGTH (MB)   RECORD NAMES
              1      18       31.21       500      610      700      900      950      970     1000      129      960     1100   
                                          VAR    BASINP    GEOM    SYMINP    ZMAT    AOBASIS   BASIS     P2S    ABASIS      S 
                                         1400     1410     1200     1210     1080     1600     1650     1700   
                                           T        V       H0       H01     AOSYM     SMH    MOLCAS    OPER   

              2       4        3.88       700     1000      520     2100   
                                         GEOM     BASIS   MCVARS     RHF  

 PROGRAMS   *        TOTAL     DF-HF       INT
 CPU TIMES  *         3.33      2.90      0.30
 REAL TIME  *         4.19 SEC
 DISK USED  *        38.78 MB (local),      155.11 MB (total)
 SF USED    *        32.17 MB
 GA USED    *         3.27 MB       (max)       0.00 MB       (current)
 **********************************************************************************************************************************

 Density functional group PBE=PBEX+PBEC
 Functional: PBEX(Automatically generated (new) PBEX)                          Gradient terms: 1
 Functional: PBEC(Automatically generated (new) PBEC)                          Gradient terms: 1
 Use libxcgrid:  F
 Use grid at  1800.2

 Functional: PBEX                      Factor:  1.0000
 Functional: PBEC                      Factor:  1.0000

 Generated new metagrid on record  1800.2 with target accuracy 1.0D-06 and 65784 points in CPU time    0.4
 Computed new grid on record 1800.1 in CPU time    0.5
  129907 words reserved for DFT integration

 PROGRAM * UKS-SCF (Unrestricted Kohn-Sham)     Authors: W. Meyer, H.-J. Werner, P.J. Knowles, 1993

 NUMBER OF ELECTRONS:      28+   27-    SPACE SYMMETRY=1    SPIN SYMMETRY: Doublet 
 CONVERGENCE THRESHOLDS:    1.00E-06 (Density)    1.00E-06 (Energy)
 INTEGRAL THRESHOLDS:       1.00E-11 (Initial)    1.00E-11 (Final)
 MAX. NUMBER OF ITERATIONS:       60
 INTERPOLATION TYPE:            DIIS
 INTERPOLATION STEPS:              2 (START)      1 (STEP)
 LEVEL SHIFTS:                 -0.20 (ALPHA)  -0.20 (BETA) 



 Use fine grid record 1800.2 for energy threshold  1.0D-06

 Basis set DEF2-SVP/JFIT generated.      Number of basis functions:   475 
 Coulomb fitting
 Screening thresholds:    THRAO_COUL= 1.0D-14    THRAO= 1.0D-12    THROV= 1.0D-12

 Reserved 1 MW to cache 100.0% of significant integrals (4 MW global). CPU: 0.1 sec

 Molecular orbitals read from record     2100.2  Type=RHF/CANONICAL (state 1.1)

 Molecular orbital dump at record        2200.2

 Initial alpha occupation  28
 Initial beta  occupation  27

 ITERATION    DDIFF          GRAD             ENERGY        2-EL.EN.            DIPOLE MOMENTS         DIIS  CPU(IT) CPU(TOT)
    1      0.000D+00      0.000D+00      -289.87050375    823.934242   -0.11445   -0.04308    1.63944    0      0.2      0.3
    2      0.429D-02      0.217D-02      -289.91259013    827.062708   -0.10690   -0.04937    1.55566    1      0.2      0.5
    3      0.153D-02      0.457D-03      -289.91660101    825.696081   -0.10381   -0.04674    1.54245    2      0.2      0.6
    4      0.834D-03      0.208D-03      -289.91769905    826.227713   -0.10385   -0.05030    1.51656    3      0.2      0.8
    5      0.337D-03      0.928D-04      -289.91786070    826.157874   -0.10686   -0.04941    1.56732    4      0.2      1.0
    6      0.190D-03      0.897D-04      -289.91797801    826.078895   -0.10312   -0.04981    1.53883    5      0.2      1.1
    7      0.959D-04      0.220D-04      -289.91799471    826.097063   -0.10419   -0.05056    1.54440    6      0.2      1.3
    8      0.371D-04      0.875D-05      -289.91799683    826.094263   -0.10355   -0.05059    1.54414    7      0.2      1.5
    9      0.129D-04      0.279D-05      -289.91799707    826.096370   -0.10363   -0.05055    1.54438    8      0.2      1.7
   10      0.593D-05      0.130D-05      -289.91799711    826.094738   -0.10360   -0.05061    1.54427    8      0.2      1.8
   11      0.233D-05      0.298D-06      -289.91799711    826.094855   -0.10360   -0.05062    1.54421    8      0.2      2.0
   12      0.668D-06      0.111D-06      -289.91799712    826.094924   -0.10361   -0.05061    1.54421    8      0.2      2.2
   13      0.420D-06      0.682D-07      -289.91799712    826.094860   -0.10360   -0.05061    1.54419    7      0.2      2.4

 Final alpha occupancy:  28
 Final beta  occupancy:  27

 !UKS STATE  1.1 Energy              -289.917997115505
 Nuclear energy                       275.70817015
 One-electron energy                 -935.39562354
 Two-electron energy                  413.04742977
 Density functional                   -43.27797350     PBEX=-41.51503390 PBEC= -1.76293960
 Virial quotient                       -1.01214346
 !UKS STATE  1.1 Dipole moment         -0.10360472    -0.05061141     1.54418668
 Dipole moment /Debye                  -0.26331970    -0.12863294     3.92467397

 Orbital energies for positive spin:

         1.1          2.1          3.1          4.1          5.1          6.1          7.1          8.1          9.1         10.1
    -14.001646    -9.936594    -9.924487    -9.912447    -9.907742    -9.906695    -9.901996    -0.811440    -0.743548    -0.670299

        11.1         12.1         13.1         14.1         15.1         16.1         17.1         18.1         19.1         20.1
     -0.629061    -0.571142    -0.522383    -0.480687    -0.418081    -0.416680    -0.394820    -0.376360    -0.351639    -0.348992

        21.1         22.1         23.1         24.1         25.1         26.1         27.1         28.1         29.1         30.1
     -0.332703    -0.317068    -0.310681    -0.308824    -0.308464    -0.305407    -0.303193    -0.161479    -0.017647    -0.014435

 Orbital energies for negative spin:

         1.1          2.1          3.1          4.1          5.1          6.1          7.1          8.1          9.1         10.1
    -14.001645    -9.935992    -9.913073    -9.912263    -9.908386    -9.907369    -9.901869    -0.811127    -0.731794    -0.667411

        11.1         12.1         13.1         14.1         15.1         16.1         17.1         18.1         19.1         20.1
     -0.626776    -0.568035    -0.519294    -0.469213    -0.413309    -0.409254    -0.389743    -0.370902    -0.347691    -0.347279

        21.1         22.1         23.1         24.1         25.1         26.1         27.1         28.1         29.1         30.1
     -0.331599    -0.313815    -0.310378    -0.308083    -0.308056    -0.302630    -0.299344    -0.096959    -0.016958    -0.013646


 HOMO     28.1    -0.161479 =      -4.3941eV
 LUMO    -28.1    -0.096959 =      -2.6384eV
 LUMO-HOMO         0.064520 =       1.7557eV

 EXPECTATION VALUE OF S**2:             0.75315631

 Occupation number threshold for pseudo-canonical orbitals: 1.9990 (occupied), 0.0010 (virtual)

 Number of pseudo-canonical occupied orbitals per symmetry:   27
 Number of active natural orbitals per symmetry:               1

 Natural orbitals saved to record    2200.2 (Orbital set 3)

 Orbital spaces for UNO-CAS (Min. occupation: 0.020  Max. occupation: 1.980):

 Closed:       27
 Active:        1


 **********************************************************************************************************************************
 DATASETS  * FILE   NREC   LENGTH (MB)   RECORD NAMES
              1      19       31.21       500      610      700      900      950      970     1000      129      960     1100   
                                          VAR    BASINP    GEOM    SYMINP    ZMAT    AOBASIS   BASIS     P2S    ABASIS      S 
                                         1400     1410     1200     1210     1080     1600     1650     1700     1800   
                                           T        V       H0       H01     AOSYM     SMH    MOLCAS    OPER     GRID   

              2       6        7.61       700     1000      520     2100     1800     2200   
                                         GEOM     BASIS   MCVARS     RHF     GRID      UKS  

 PROGRAMS   *        TOTAL    DF-UKS     DF-HF       INT
 CPU TIMES  *         6.26      2.93      2.90      0.30
 REAL TIME  *         7.22 SEC
 DISK USED  *        38.89 MB (local),      155.54 MB (total)
 SF USED    *        32.17 MB
 GA USED    *         3.27 MB       (max)       2.17 MB       (current)
 **********************************************************************************************************************************


 PROGRAM * OPT (Geometry optimization)     Authors: F. Eckert and H.-J. Werner


 BFGS update of hessian


********** USER DEFINED INT/FIX/CONSTRAINTS ****************

List of primitive internal coordinates

     N      Name     Type   Natoms   Atom list

     1    Bo0001     Bond        2      H7   C1  
     2    Bo0002     Bond        2      H7   C17 
     3    An0001     Angle       3      C1   H7   C17 

List of user defined internal/fixed coordinates and constraints

- - - - - - - - - - - - - - - - - - - - - - - - - - - - - - - - - 
    N      Name   Type      Pname     Coeff       Value   Unit
- - - - - - - - - - - - - - - - - - - - - - - - - - - - - - - - - 
    1    Cns001    Con     Bo0001     1.000     2.00000 Angstrom
- - - - - - - - - - - - - - - - - - - - - - - - - - - - - - - - - 
    2    Cns002    Con     Bo0002     1.000     2.00000 Angstrom
- - - - - - - - - - - - - - - - - - - - - - - - - - - - - - - - - 
    3    Cns003    Con     An0001     1.000   180.00000   Degree
- - - - - - - - - - - - - - - - - - - - - - - - - - - - - - - - - 


******************************************************************



 *** Long output written to logfile /mnt/storage/home/lb17101/optimizations/7/7_2.00_2.00.log ***


 Geometry optimization using default procedure for command CF-UKS-SCF

 Geometry written to block  1 of record 700

 SLAPAF optimizer by R. Lindh and Ignacio F. Galvan entered

 Constraints section
ConstraintsConstraintsConstraintsConstraintsConstraintsConstraintsConstraintsConstraintsConstraintsConstraints
ConstraintsConstraintsConstraintsConstraintsConstraintsConstraintsConstraintsConstraintsConstraintsConstraints
Constraints                                                                                        Constraints
Constraints                                 C O N S T R A I N T S                                  Constraints
Constraints                                                                                        Constraints

************************************************************************************************************************
BO0001 = BOND       H7    C1
BO0002 = BOND       H7    C17
AN0001 = ANGLE      C1    H7    C17
VALUES
BO0001 =      2.00000000 ANGSTROM
BO0002 =      2.00000000 ANGSTROM
AN0001 =    180.00000000 DEGREE
************************************************************************************************************************


 *************************************************************
 * Values of the primitive constraints                       *
 *************************************************************
 BO0001   : Bond Length=  2.310086 / Angstrom  4.365431 / bohr
 BO0002   : Bond Length=  1.100000 / Angstrom  2.078699 / bohr
  Valence angle close to end in range of definition
 AN0001   : Angle=      178.1204   / Degree    3.108788 / rad

 *******************************************
 * Values of the constraints   / au or rad *
 *******************************************
   Label        C         C0
 Cns001      4.365431  3.779452
 Cns002      2.078699  3.779452
 Cns003      3.108788  3.141593


 ITER.   ENERGY(OLD)    ENERGY(NEW)      DE          GRADMAX     GRADNORM    GRADRMS     STEPMAX     STEPLEN     STEPRMS   CPU-time
   1  -289.91799712  -289.91510408     0.00289304  0.00120714  0.00190236  0.00025197  0.09476167  0.25850119  0.00453511      3.75

 Constraints section
ConstraintsConstraintsConstraintsConstraintsConstraintsConstraintsConstraintsConstraintsConstraintsConstraints
ConstraintsConstraintsConstraintsConstraintsConstraintsConstraintsConstraintsConstraintsConstraintsConstraints
Constraints                                                                                        Constraints
Constraints                                 C O N S T R A I N T S                                  Constraints
Constraints                                                                                        Constraints

************************************************************************************************************************
BO0001 = BOND       H7    C1
BO0002 = BOND       H7    C17
AN0001 = ANGLE      C1    H7    C17
VALUES
BO0001 =      2.00000000 ANGSTROM
BO0002 =      2.00000000 ANGSTROM
AN0001 =    180.00000000 DEGREE
************************************************************************************************************************


 *************************************************************
 * Values of the primitive constraints                       *
 *************************************************************
 BO0001   : Bond Length=  2.284234 / Angstrom  4.316577 / bohr
 BO0002   : Bond Length=  1.175035 / Angstrom  2.220494 / bohr
  Valence angle close to end in range of definition
 AN0001   : Angle=      177.7001   / Degree    3.101452 / rad

 *******************************************
 * Values of the constraints   / au or rad *
 *******************************************
   Label        C         C0
 Cns001      4.316577  3.779452
 Cns002      2.220494  3.779452
 Cns003      3.101452  3.141593

   2  -289.91510408  -289.90760215     0.00750192  0.05246910  0.06570403  0.00870271  0.51931545  1.03418588  0.01814361      7.73

 Constraints section
ConstraintsConstraintsConstraintsConstraintsConstraintsConstraintsConstraintsConstraintsConstraintsConstraints
ConstraintsConstraintsConstraintsConstraintsConstraintsConstraintsConstraintsConstraintsConstraintsConstraints
Constraints                                                                                        Constraints
Constraints                                 C O N S T R A I N T S                                  Constraints
Constraints                                                                                        Constraints

************************************************************************************************************************
BO0001 = BOND       H7    C1
BO0002 = BOND       H7    C17
AN0001 = ANGLE      C1    H7    C17
VALUES
BO0001 =      2.00000000 ANGSTROM
BO0002 =      2.00000000 ANGSTROM
AN0001 =    180.00000000 DEGREE
************************************************************************************************************************


 *************************************************************
 * Values of the primitive constraints                       *
 *************************************************************
 BO0001   : Bond Length=  2.258385 / Angstrom  4.267729 / bohr
 BO0002   : Bond Length=  1.250060 / Angstrom  2.362270 / bohr
  Valence angle close to end in range of definition
 AN0001   : Angle=      177.8727   / Degree    3.104465 / rad

 *******************************************
 * Values of the constraints   / au or rad *
 *******************************************
   Label        C         C0
 Cns001      4.267729  3.779452
 Cns002      2.362270  3.779452
 Cns003      3.104465  3.141593

   3  -289.90760215  -289.88596822     0.02163393  0.05793627  0.07353821  0.00974037  0.25750366  0.68893376  0.01208656     11.58

 Constraints section
ConstraintsConstraintsConstraintsConstraintsConstraintsConstraintsConstraintsConstraintsConstraintsConstraints
ConstraintsConstraintsConstraintsConstraintsConstraintsConstraintsConstraintsConstraintsConstraintsConstraints
Constraints                                                                                        Constraints
Constraints                                 C O N S T R A I N T S                                  Constraints
Constraints                                                                                        Constraints

************************************************************************************************************************
BO0001 = BOND       H7    C1
BO0002 = BOND       H7    C17
AN0001 = ANGLE      C1    H7    C17
VALUES
BO0001 =      2.00000000 ANGSTROM
BO0002 =      2.00000000 ANGSTROM
AN0001 =    180.00000000 DEGREE
************************************************************************************************************************


 *************************************************************
 * Values of the primitive constraints                       *
 *************************************************************
 BO0001   : Bond Length=  2.206462 / Angstrom  4.169609 / bohr
 BO0002   : Bond Length=  1.400762 / Angstrom  2.647056 / bohr
  Valence angle close to end in range of definition
 AN0001   : Angle=      178.2738   / Degree    3.111464 / rad

 *******************************************
 * Values of the constraints   / au or rad *
 *******************************************
   Label        C         C0
 Cns001      4.169609  3.779452
 Cns002      2.647056  3.779452
 Cns003      3.111464  3.141593

   4  -289.88596822  -289.86798304     0.01798518  0.07286346  0.09453341  0.01252126  0.51222303  1.17587249  0.02062934     15.45

 Constraints section
ConstraintsConstraintsConstraintsConstraintsConstraintsConstraintsConstraintsConstraintsConstraintsConstraints
ConstraintsConstraintsConstraintsConstraintsConstraintsConstraintsConstraintsConstraintsConstraintsConstraints
Constraints                                                                                        Constraints
Constraints                                 C O N S T R A I N T S                                  Constraints
Constraints                                                                                        Constraints

************************************************************************************************************************
BO0001 = BOND       H7    C1
BO0002 = BOND       H7    C17
AN0001 = ANGLE      C1    H7    C17
VALUES
BO0001 =      2.00000000 ANGSTROM
BO0002 =      2.00000000 ANGSTROM
AN0001 =    180.00000000 DEGREE
************************************************************************************************************************


 *************************************************************
 * Values of the primitive constraints                       *
 *************************************************************
 BO0001   : Bond Length=  2.170635 / Angstrom  4.101905 / bohr
 BO0002   : Bond Length=  1.504747 / Angstrom  2.843560 / bohr
  Valence angle close to end in range of definition
 AN0001   : Angle=      178.3456   / Degree    3.112719 / rad

 *******************************************
 * Values of the constraints   / au or rad *
 *******************************************
   Label        C         C0
 Cns001      4.101905  3.779452
 Cns002      2.843560  3.779452
 Cns003      3.112719  3.141593

   5  -289.86798304  -289.83910058     0.02888246  0.07007488  0.09581033  0.01269039  0.26614890  0.69748666  0.01223661     19.41

 Constraints section
ConstraintsConstraintsConstraintsConstraintsConstraintsConstraintsConstraintsConstraintsConstraintsConstraints
ConstraintsConstraintsConstraintsConstraintsConstraintsConstraintsConstraintsConstraintsConstraintsConstraints
Constraints                                                                                        Constraints
Constraints                                 C O N S T R A I N T S                                  Constraints
Constraints                                                                                        Constraints

************************************************************************************************************************
BO0001 = BOND       H7    C1
BO0002 = BOND       H7    C17
AN0001 = ANGLE      C1    H7    C17
VALUES
BO0001 =      2.00000000 ANGSTROM
BO0002 =      2.00000000 ANGSTROM
AN0001 =    180.00000000 DEGREE
************************************************************************************************************************


 *************************************************************
 * Values of the primitive constraints                       *
 *************************************************************
 BO0001   : Bond Length=  2.098694 / Angstrom  3.965956 / bohr
 BO0002   : Bond Length=  1.713550 / Angstrom  3.238140 / bohr
  Valence angle close to end in range of definition
 AN0001   : Angle=      178.7768   / Degree    3.120244 / rad

 *******************************************
 * Values of the constraints   / au or rad *
 *******************************************
   Label        C         C0
 Cns001      3.965956  3.779452
 Cns002      3.238140  3.779452
 Cns003      3.120244  3.141593

   6  -289.83910058  -289.83129880     0.00780179  0.05246726  0.08167223  0.01081775  0.23025851  0.69648511  0.01221904     23.61

 Constraints section
ConstraintsConstraintsConstraintsConstraintsConstraintsConstraintsConstraintsConstraintsConstraintsConstraints
ConstraintsConstraintsConstraintsConstraintsConstraintsConstraintsConstraintsConstraintsConstraintsConstraints
Constraints                                                                                        Constraints
Constraints                                 C O N S T R A I N T S                                  Constraints
Constraints                                                                                        Constraints

************************************************************************************************************************
BO0001 = BOND       H7    C1
BO0002 = BOND       H7    C17
AN0001 = ANGLE      C1    H7    C17
VALUES
BO0001 =      2.00000000 ANGSTROM
BO0002 =      2.00000000 ANGSTROM
AN0001 =    180.00000000 DEGREE
************************************************************************************************************************


 *************************************************************
 * Values of the primitive constraints                       *
 *************************************************************
 BO0001   : Bond Length=  2.063520 / Angstrom  3.899487 / bohr
 BO0002   : Bond Length=  1.815640 / Angstrom  3.431062 / bohr
  Valence angle close to end in range of definition
 AN0001   : Angle=      178.9498   / Degree    3.123264 / rad

 *******************************************
 * Values of the constraints   / au or rad *
 *******************************************
   Label        C         C0
 Cns001      3.899487  3.779452
 Cns002      3.431062  3.779452
 Cns003      3.123264  3.141593

   7  -289.83129880  -289.82334601     0.00795279  0.07051080  0.08586043  0.01137249  0.44688258  1.21317877  0.02128384     27.70

 Constraints section
ConstraintsConstraintsConstraintsConstraintsConstraintsConstraintsConstraintsConstraintsConstraintsConstraints
ConstraintsConstraintsConstraintsConstraintsConstraintsConstraintsConstraintsConstraintsConstraintsConstraints
Constraints                                                                                        Constraints
Constraints                                 C O N S T R A I N T S                                  Constraints
Constraints                                                                                        Constraints

************************************************************************************************************************
BO0001 = BOND       H7    C1
BO0002 = BOND       H7    C17
AN0001 = ANGLE      C1    H7    C17
VALUES
BO0001 =      2.00000000 ANGSTROM
BO0002 =      2.00000000 ANGSTROM
AN0001 =    180.00000000 DEGREE
************************************************************************************************************************


 *************************************************************
 * Values of the primitive constraints                       *
 *************************************************************
 BO0001   : Bond Length=  2.027943 / Angstrom  3.832258 / bohr
 BO0002   : Bond Length=  1.918897 / Angstrom  3.626189 / bohr
 AN0001   : Angle=      173.8797   / Degree    3.034773 / rad

 *******************************************
 * Values of the constraints   / au or rad *
 *******************************************
   Label        C         C0
 Cns001      3.832258  3.779452
 Cns002      3.626189  3.779452
 Cns003      3.034773  3.141593

   8  -289.82334601  -289.81716901     0.00617700  0.07926248  0.09301926  0.01232070  0.35999184  0.62089896  0.01089296     31.90

 Constraints section
ConstraintsConstraintsConstraintsConstraintsConstraintsConstraintsConstraintsConstraintsConstraintsConstraints
ConstraintsConstraintsConstraintsConstraintsConstraintsConstraintsConstraintsConstraintsConstraintsConstraints
Constraints                                                                                        Constraints
Constraints                                 C O N S T R A I N T S                                  Constraints
Constraints                                                                                        Constraints

************************************************************************************************************************
BO0001 = BOND       H7    C1
BO0002 = BOND       H7    C17
AN0001 = ANGLE      C1    H7    C17
VALUES
BO0001 =      2.00000000 ANGSTROM
BO0002 =      2.00000000 ANGSTROM
AN0001 =    180.00000000 DEGREE
************************************************************************************************************************


 *************************************************************
 * Values of the primitive constraints                       *
 *************************************************************
 BO0001   : Bond Length=  2.000000 / Angstrom  3.779452 / bohr
 BO0002   : Bond Length=  2.000000 / Angstrom  3.779453 / bohr
  Valence angle close to end in range of definition
 AN0001   : Angle=      178.5905   / Degree    3.116993 / rad

 *******************************************
 * Values of the constraints   / au or rad *
 *******************************************
   Label        C         C0
 Cns001      3.779452  3.779452
 Cns002      3.779453  3.779452
 Cns003      3.116993  3.141593

   9  -289.81716901  -289.81753877    -0.00036977  0.07763712  0.09152008  0.01212213  0.30004106  0.62781998  0.01101439     35.82

 Constraints section
ConstraintsConstraintsConstraintsConstraintsConstraintsConstraintsConstraintsConstraintsConstraintsConstraints
ConstraintsConstraintsConstraintsConstraintsConstraintsConstraintsConstraintsConstraintsConstraintsConstraints
Constraints                                                                                        Constraints
Constraints                                 C O N S T R A I N T S                                  Constraints
Constraints                                                                                        Constraints

************************************************************************************************************************
BO0001 = BOND       H7    C1
BO0002 = BOND       H7    C17
AN0001 = ANGLE      C1    H7    C17
VALUES
BO0001 =      2.00000000 ANGSTROM
BO0002 =      2.00000000 ANGSTROM
AN0001 =    180.00000000 DEGREE
************************************************************************************************************************


 *************************************************************
 * Values of the primitive constraints                       *
 *************************************************************
 BO0001   : Bond Length=  2.000000 / Angstrom  3.779452 / bohr
 BO0002   : Bond Length=  2.000000 / Angstrom  3.779452 / bohr
  Valence angle close to end in range of definition
 AN0001   : Angle=      179.9391   / Degree    3.140530 / rad

 *******************************************
 * Values of the constraints   / au or rad *
 *******************************************
   Label        C         C0
 Cns001      3.779452  3.779452
 Cns002      3.779452  3.779452
 Cns003      3.140530  3.141593

  10  -289.81753877  -289.81786898    -0.00033020  0.02946486  0.04696857  0.00622114  0.11377844  0.34339913  0.00602455     39.50

 Constraints section
ConstraintsConstraintsConstraintsConstraintsConstraintsConstraintsConstraintsConstraintsConstraintsConstraints
ConstraintsConstraintsConstraintsConstraintsConstraintsConstraintsConstraintsConstraintsConstraintsConstraints
Constraints                                                                                        Constraints
Constraints                                 C O N S T R A I N T S                                  Constraints
Constraints                                                                                        Constraints

************************************************************************************************************************
BO0001 = BOND       H7    C1
BO0002 = BOND       H7    C17
AN0001 = ANGLE      C1    H7    C17
VALUES
BO0001 =      2.00000000 ANGSTROM
BO0002 =      2.00000000 ANGSTROM
AN0001 =    180.00000000 DEGREE
************************************************************************************************************************


 *************************************************************
 * Values of the primitive constraints                       *
 *************************************************************
 BO0001   : Bond Length=  2.000000 / Angstrom  3.779452 / bohr
 BO0002   : Bond Length=  2.000000 / Angstrom  3.779452 / bohr
  Valence angle close to end in range of definition
 AN0001   : Angle=      179.8362   / Degree    3.138734 / rad

 *******************************************
 * Values of the constraints   / au or rad *
 *******************************************
   Label        C         C0
 Cns001      3.779452  3.779452
 Cns002      3.779452  3.779452
 Cns003      3.138734  3.141593

  11  -289.81786898  -289.81803795    -0.00016897  0.04043843  0.05263452  0.00697161  0.10477503  0.21363043  0.00374790     43.04

 Constraints section
ConstraintsConstraintsConstraintsConstraintsConstraintsConstraintsConstraintsConstraintsConstraintsConstraints
ConstraintsConstraintsConstraintsConstraintsConstraintsConstraintsConstraintsConstraintsConstraintsConstraints
Constraints                                                                                        Constraints
Constraints                                 C O N S T R A I N T S                                  Constraints
Constraints                                                                                        Constraints

************************************************************************************************************************
BO0001 = BOND       H7    C1
BO0002 = BOND       H7    C17
AN0001 = ANGLE      C1    H7    C17
VALUES
BO0001 =      2.00000000 ANGSTROM
BO0002 =      2.00000000 ANGSTROM
AN0001 =    180.00000000 DEGREE
************************************************************************************************************************


 *************************************************************
 * Values of the primitive constraints                       *
 *************************************************************
 BO0001   : Bond Length=  2.000000 / Angstrom  3.779452 / bohr
 BO0002   : Bond Length=  2.000000 / Angstrom  3.779452 / bohr
  Valence angle close to end in range of definition
 AN0001   : Angle=      178.5245   / Degree    3.115841 / rad

 *******************************************
 * Values of the constraints   / au or rad *
 *******************************************
   Label        C         C0
 Cns001      3.779452  3.779452
 Cns002      3.779452  3.779452
 Cns003      3.115841  3.141593

  12  -289.81803795  -289.81812748    -0.00008952  0.04688242  0.05783779  0.00766080  0.08667375  0.16817362  0.00295041     46.34

 Constraints section
ConstraintsConstraintsConstraintsConstraintsConstraintsConstraintsConstraintsConstraintsConstraintsConstraints
ConstraintsConstraintsConstraintsConstraintsConstraintsConstraintsConstraintsConstraintsConstraintsConstraints
Constraints                                                                                        Constraints
Constraints                                 C O N S T R A I N T S                                  Constraints
Constraints                                                                                        Constraints

************************************************************************************************************************
BO0001 = BOND       H7    C1
BO0002 = BOND       H7    C17
AN0001 = ANGLE      C1    H7    C17
VALUES
BO0001 =      2.00000000 ANGSTROM
BO0002 =      2.00000000 ANGSTROM
AN0001 =    180.00000000 DEGREE
************************************************************************************************************************


 *************************************************************
 * Values of the primitive constraints                       *
 *************************************************************
 BO0001   : Bond Length=  2.000000 / Angstrom  3.779452 / bohr
 BO0002   : Bond Length=  2.000000 / Angstrom  3.779452 / bohr
  Valence angle close to end in range of definition
 AN0001   : Angle=      179.6422   / Degree    3.135348 / rad

 *******************************************
 * Values of the constraints   / au or rad *
 *******************************************
   Label        C         C0
 Cns001      3.779452  3.779452
 Cns002      3.779452  3.779452
 Cns003      3.135348  3.141593

  13  -289.81812748  -289.81807781     0.00004966  0.04879005  0.05938007  0.00786508  0.19878468  0.33888493  0.00594535     49.90

 Constraints section
ConstraintsConstraintsConstraintsConstraintsConstraintsConstraintsConstraintsConstraintsConstraintsConstraints
ConstraintsConstraintsConstraintsConstraintsConstraintsConstraintsConstraintsConstraintsConstraintsConstraints
Constraints                                                                                        Constraints
Constraints                                 C O N S T R A I N T S                                  Constraints
Constraints                                                                                        Constraints

************************************************************************************************************************
BO0001 = BOND       H7    C1
BO0002 = BOND       H7    C17
AN0001 = ANGLE      C1    H7    C17
VALUES
BO0001 =      2.00000000 ANGSTROM
BO0002 =      2.00000000 ANGSTROM
AN0001 =    180.00000000 DEGREE
************************************************************************************************************************


 *************************************************************
 * Values of the primitive constraints                       *
 *************************************************************
 BO0001   : Bond Length=  2.000000 / Angstrom  3.779452 / bohr
 BO0002   : Bond Length=  2.000000 / Angstrom  3.779452 / bohr
  Valence angle close to end in range of definition
 AN0001   : Angle=      178.1588   / Degree    3.109458 / rad

 *******************************************
 * Values of the constraints   / au or rad *
 *******************************************
   Label        C         C0
 Cns001      3.779452  3.779452
 Cns002      3.779452  3.779452
 Cns003      3.109458  3.141593

  14  -289.81807781  -289.81800912     0.00006869  0.04708653  0.05790626  0.00766987  0.24515539  0.52274203  0.00917091     53.71

 Constraints section
ConstraintsConstraintsConstraintsConstraintsConstraintsConstraintsConstraintsConstraintsConstraintsConstraints
ConstraintsConstraintsConstraintsConstraintsConstraintsConstraintsConstraintsConstraintsConstraintsConstraints
Constraints                                                                                        Constraints
Constraints                                 C O N S T R A I N T S                                  Constraints
Constraints                                                                                        Constraints

************************************************************************************************************************
BO0001 = BOND       H7    C1
BO0002 = BOND       H7    C17
AN0001 = ANGLE      C1    H7    C17
VALUES
BO0001 =      2.00000000 ANGSTROM
BO0002 =      2.00000000 ANGSTROM
AN0001 =    180.00000000 DEGREE
************************************************************************************************************************


 *************************************************************
 * Values of the primitive constraints                       *
 *************************************************************
 BO0001   : Bond Length=  2.000000 / Angstrom  3.779452 / bohr
 BO0002   : Bond Length=  2.000000 / Angstrom  3.779452 / bohr
  Valence angle close to end in range of definition
 AN0001   : Angle=      179.7101   / Degree    3.136533 / rad

 *******************************************
 * Values of the constraints   / au or rad *
 *******************************************
   Label        C         C0
 Cns001      3.779452  3.779452
 Cns002      3.779452  3.779452
 Cns003      3.136533  3.141593

  15  -289.81800912  -289.81803701    -0.00002789  0.04360384  0.05516522  0.00730681  0.25605173  0.62331877  0.01093542     57.49

 Constraints section
ConstraintsConstraintsConstraintsConstraintsConstraintsConstraintsConstraintsConstraintsConstraintsConstraints
ConstraintsConstraintsConstraintsConstraintsConstraintsConstraintsConstraintsConstraintsConstraintsConstraints
Constraints                                                                                        Constraints
Constraints                                 C O N S T R A I N T S                                  Constraints
Constraints                                                                                        Constraints

************************************************************************************************************************
BO0001 = BOND       H7    C1
BO0002 = BOND       H7    C17
AN0001 = ANGLE      C1    H7    C17
VALUES
BO0001 =      2.00000000 ANGSTROM
BO0002 =      2.00000000 ANGSTROM
AN0001 =    180.00000000 DEGREE
************************************************************************************************************************


 *************************************************************
 * Values of the primitive constraints                       *
 *************************************************************
 BO0001   : Bond Length=  2.000000 / Angstrom  3.779452 / bohr
 BO0002   : Bond Length=  2.000000 / Angstrom  3.779452 / bohr
  Valence angle close to end in range of definition
 AN0001   : Angle=      178.7399   / Degree    3.119600 / rad

 *******************************************
 * Values of the constraints   / au or rad *
 *******************************************
   Label        C         C0
 Cns001      3.779452  3.779452
 Cns002      3.779452  3.779452
 Cns003      3.119600  3.141593

  16  -289.81803701  -289.81797995     0.00005706  0.04727443  0.05817167  0.00770503  0.21525010  0.51802176  0.00908810     61.01

 Constraints section
ConstraintsConstraintsConstraintsConstraintsConstraintsConstraintsConstraintsConstraintsConstraintsConstraints
ConstraintsConstraintsConstraintsConstraintsConstraintsConstraintsConstraintsConstraintsConstraintsConstraints
Constraints                                                                                        Constraints
Constraints                                 C O N S T R A I N T S                                  Constraints
Constraints                                                                                        Constraints

************************************************************************************************************************
BO0001 = BOND       H7    C1
BO0002 = BOND       H7    C17
AN0001 = ANGLE      C1    H7    C17
VALUES
BO0001 =      2.00000000 ANGSTROM
BO0002 =      2.00000000 ANGSTROM
AN0001 =    180.00000000 DEGREE
************************************************************************************************************************


 *************************************************************
 * Values of the primitive constraints                       *
 *************************************************************
 BO0001   : Bond Length=  2.000000 / Angstrom  3.779452 / bohr
 BO0002   : Bond Length=  2.000000 / Angstrom  3.779452 / bohr
  Valence angle close to end in range of definition
 AN0001   : Angle=      178.5705   / Degree    3.116643 / rad

 *******************************************
 * Values of the constraints   / au or rad *
 *******************************************
   Label        C         C0
 Cns001      3.779452  3.779452
 Cns002      3.779452  3.779452
 Cns003      3.116643  3.141593

  17  -289.81797995  -289.81812229    -0.00014234  0.04317336  0.05483377  0.00726291  0.12653107  0.31478197  0.00552249     64.48

 Constraints section
ConstraintsConstraintsConstraintsConstraintsConstraintsConstraintsConstraintsConstraintsConstraintsConstraints
ConstraintsConstraintsConstraintsConstraintsConstraintsConstraintsConstraintsConstraintsConstraintsConstraints
Constraints                                                                                        Constraints
Constraints                                 C O N S T R A I N T S                                  Constraints
Constraints                                                                                        Constraints

************************************************************************************************************************
BO0001 = BOND       H7    C1
BO0002 = BOND       H7    C17
AN0001 = ANGLE      C1    H7    C17
VALUES
BO0001 =      2.00000000 ANGSTROM
BO0002 =      2.00000000 ANGSTROM
AN0001 =    180.00000000 DEGREE
************************************************************************************************************************


 *************************************************************
 * Values of the primitive constraints                       *
 *************************************************************
 BO0001   : Bond Length=  2.000000 / Angstrom  3.779452 / bohr
 BO0002   : Bond Length=  2.000000 / Angstrom  3.779452 / bohr
  Valence angle close to end in range of definition
 AN0001   : Angle=      178.9587   / Degree    3.123419 / rad

 *******************************************
 * Values of the constraints   / au or rad *
 *******************************************
   Label        C         C0
 Cns001      3.779452  3.779452
 Cns002      3.779452  3.779452
 Cns003      3.123419  3.141593

  18  -289.81812229  -289.81811059     0.00001170  0.04524528  0.05633291  0.00746148  0.02569342  0.05473714  0.00096030     67.53

 Constraints section
ConstraintsConstraintsConstraintsConstraintsConstraintsConstraintsConstraintsConstraintsConstraintsConstraints
ConstraintsConstraintsConstraintsConstraintsConstraintsConstraintsConstraintsConstraintsConstraintsConstraints
Constraints                                                                                        Constraints
Constraints                                 C O N S T R A I N T S                                  Constraints
Constraints                                                                                        Constraints

************************************************************************************************************************
BO0001 = BOND       H7    C1
BO0002 = BOND       H7    C17
AN0001 = ANGLE      C1    H7    C17
VALUES
BO0001 =      2.00000000 ANGSTROM
BO0002 =      2.00000000 ANGSTROM
AN0001 =    180.00000000 DEGREE
************************************************************************************************************************


 *************************************************************
 * Values of the primitive constraints                       *
 *************************************************************
 BO0001   : Bond Length=  2.000000 / Angstrom  3.779452 / bohr
 BO0002   : Bond Length=  2.000000 / Angstrom  3.779452 / bohr
  Valence angle close to end in range of definition
 AN0001   : Angle=      179.6037   / Degree    3.134676 / rad

 *******************************************
 * Values of the constraints   / au or rad *
 *******************************************
   Label        C         C0
 Cns001      3.779452  3.779452
 Cns002      3.779452  3.779452
 Cns003      3.134676  3.141593

  19  -289.81811059  -289.81811226    -0.00000166  0.04509610  0.05619100  0.00744268  0.04736366  0.12139185  0.00212968     70.95

 Constraints section
ConstraintsConstraintsConstraintsConstraintsConstraintsConstraintsConstraintsConstraintsConstraintsConstraints
ConstraintsConstraintsConstraintsConstraintsConstraintsConstraintsConstraintsConstraintsConstraintsConstraints
Constraints                                                                                        Constraints
Constraints                                 C O N S T R A I N T S                                  Constraints
Constraints                                                                                        Constraints

************************************************************************************************************************
BO0001 = BOND       H7    C1
BO0002 = BOND       H7    C17
AN0001 = ANGLE      C1    H7    C17
VALUES
BO0001 =      2.00000000 ANGSTROM
BO0002 =      2.00000000 ANGSTROM
AN0001 =    180.00000000 DEGREE
************************************************************************************************************************


 *************************************************************
 * Values of the primitive constraints                       *
 *************************************************************
 BO0001   : Bond Length=  2.000000 / Angstrom  3.779452 / bohr
 BO0002   : Bond Length=  2.000000 / Angstrom  3.779452 / bohr
  Valence angle close to end in range of definition
 AN0001   : Angle=      179.3009   / Degree    3.129392 / rad

 *******************************************
 * Values of the constraints   / au or rad *
 *******************************************
   Label        C         C0
 Cns001      3.779452  3.779452
 Cns002      3.779452  3.779452
 Cns003      3.129392  3.141593

  20  -289.81811226  -289.81812924    -0.00001699  0.04518470  0.05627731  0.00745411  0.02277704  0.04321011  0.00075807     73.76

 Constraints section
ConstraintsConstraintsConstraintsConstraintsConstraintsConstraintsConstraintsConstraintsConstraintsConstraints
ConstraintsConstraintsConstraintsConstraintsConstraintsConstraintsConstraintsConstraintsConstraintsConstraints
Constraints                                                                                        Constraints
Constraints                                 C O N S T R A I N T S                                  Constraints
Constraints                                                                                        Constraints

************************************************************************************************************************
BO0001 = BOND       H7    C1
BO0002 = BOND       H7    C17
AN0001 = ANGLE      C1    H7    C17
VALUES
BO0001 =      2.00000000 ANGSTROM
BO0002 =      2.00000000 ANGSTROM
AN0001 =    180.00000000 DEGREE
************************************************************************************************************************


 *************************************************************
 * Values of the primitive constraints                       *
 *************************************************************
 BO0001   : Bond Length=  2.000000 / Angstrom  3.779452 / bohr
 BO0002   : Bond Length=  2.000000 / Angstrom  3.779452 / bohr
  Valence angle close to end in range of definition
 AN0001   : Angle=      179.9164   / Degree    3.140134 / rad

 *******************************************
 * Values of the constraints   / au or rad *
 *******************************************
   Label        C         C0
 Cns001      3.779452  3.779452
 Cns002      3.779452  3.779452
 Cns003      3.140134  3.141593

  21  -289.81812924  -289.81813114    -0.00000189  0.04501425  0.05614289  0.00743631  0.03894901  0.10713061  0.00187948     76.76

 Constraints section
ConstraintsConstraintsConstraintsConstraintsConstraintsConstraintsConstraintsConstraintsConstraintsConstraints
ConstraintsConstraintsConstraintsConstraintsConstraintsConstraintsConstraintsConstraintsConstraintsConstraints
Constraints                                                                                        Constraints
Constraints                                 C O N S T R A I N T S                                  Constraints
Constraints                                                                                        Constraints

************************************************************************************************************************
BO0001 = BOND       H7    C1
BO0002 = BOND       H7    C17
AN0001 = ANGLE      C1    H7    C17
VALUES
BO0001 =      2.00000000 ANGSTROM
BO0002 =      2.00000000 ANGSTROM
AN0001 =    180.00000000 DEGREE
************************************************************************************************************************


 *************************************************************
 * Values of the primitive constraints                       *
 *************************************************************
 BO0001   : Bond Length=  2.000000 / Angstrom  3.779452 / bohr
 BO0002   : Bond Length=  2.000000 / Angstrom  3.779452 / bohr
  Valence angle close to end in range of definition
 AN0001   : Angle=      179.2546   / Degree    3.128583 / rad

 *******************************************
 * Values of the constraints   / au or rad *
 *******************************************
   Label        C         C0
 Cns001      3.779452  3.779452
 Cns002      3.779452  3.779452
 Cns003      3.128583  3.141593

  22  -289.81813114  -289.81812603     0.00000510  0.04492301  0.05606627  0.00742616  0.02950145  0.05099219  0.00089460     79.71

 Constraints section
ConstraintsConstraintsConstraintsConstraintsConstraintsConstraintsConstraintsConstraintsConstraintsConstraints
ConstraintsConstraintsConstraintsConstraintsConstraintsConstraintsConstraintsConstraintsConstraintsConstraints
Constraints                                                                                        Constraints
Constraints                                 C O N S T R A I N T S                                  Constraints
Constraints                                                                                        Constraints

************************************************************************************************************************
BO0001 = BOND       H7    C1
BO0002 = BOND       H7    C17
AN0001 = ANGLE      C1    H7    C17
VALUES
BO0001 =      2.00000000 ANGSTROM
BO0002 =      2.00000000 ANGSTROM
AN0001 =    180.00000000 DEGREE
************************************************************************************************************************


 *************************************************************
 * Values of the primitive constraints                       *
 *************************************************************
 BO0001   : Bond Length=  2.000000 / Angstrom  3.779452 / bohr
 BO0002   : Bond Length=  2.000000 / Angstrom  3.779452 / bohr
  Valence angle close to end in range of definition
 AN0001   : Angle=      179.9790   / Degree    3.141226 / rad

 *******************************************
 * Values of the constraints   / au or rad *
 *******************************************
   Label        C         C0
 Cns001      3.779452  3.779452
 Cns002      3.779452  3.779452
 Cns003      3.141226  3.141593

  23  -289.81812603  -289.81812960    -0.00000356  0.04509362  0.05619556  0.00744328  0.02576196  0.07320413  0.00128428     82.91

 Constraints section
ConstraintsConstraintsConstraintsConstraintsConstraintsConstraintsConstraintsConstraintsConstraintsConstraints
ConstraintsConstraintsConstraintsConstraintsConstraintsConstraintsConstraintsConstraintsConstraintsConstraints
Constraints                                                                                        Constraints
Constraints                                 C O N S T R A I N T S                                  Constraints
Constraints                                                                                        Constraints

************************************************************************************************************************
BO0001 = BOND       H7    C1
BO0002 = BOND       H7    C17
AN0001 = ANGLE      C1    H7    C17
VALUES
BO0001 =      2.00000000 ANGSTROM
BO0002 =      2.00000000 ANGSTROM
AN0001 =    180.00000000 DEGREE
************************************************************************************************************************


 *************************************************************
 * Values of the primitive constraints                       *
 *************************************************************
 BO0001   : Bond Length=  2.000000 / Angstrom  3.779452 / bohr
 BO0002   : Bond Length=  2.000000 / Angstrom  3.779452 / bohr
  Valence angle close to end in range of definition
 AN0001   : Angle=      179.5718   / Degree    3.134120 / rad

 *******************************************
 * Values of the constraints   / au or rad *
 *******************************************
   Label        C         C0
 Cns001      3.779452  3.779452
 Cns002      3.779452  3.779452
 Cns003      3.134120  3.141593

  24  -289.81812960  -289.81812693     0.00000267  0.04504057  0.05616069  0.00743866  0.02327436  0.04517896  0.00079261     85.92

 Constraints section
ConstraintsConstraintsConstraintsConstraintsConstraintsConstraintsConstraintsConstraintsConstraintsConstraints
ConstraintsConstraintsConstraintsConstraintsConstraintsConstraintsConstraintsConstraintsConstraintsConstraints
Constraints                                                                                        Constraints
Constraints                                 C O N S T R A I N T S                                  Constraints
Constraints                                                                                        Constraints

************************************************************************************************************************
BO0001 = BOND       H7    C1
BO0002 = BOND       H7    C17
AN0001 = ANGLE      C1    H7    C17
VALUES
BO0001 =      2.00000000 ANGSTROM
BO0002 =      2.00000000 ANGSTROM
AN0001 =    180.00000000 DEGREE
************************************************************************************************************************


 *************************************************************
 * Values of the primitive constraints                       *
 *************************************************************
 BO0001   : Bond Length=  2.000000 / Angstrom  3.779452 / bohr
 BO0002   : Bond Length=  2.000000 / Angstrom  3.779452 / bohr
  Valence angle close to end in range of definition
 AN0001   : Angle=      179.9850   / Degree    3.141331 / rad

 *******************************************
 * Values of the constraints   / au or rad *
 *******************************************
   Label        C         C0
 Cns001      3.779452  3.779452
 Cns002      3.779452  3.779452
 Cns003      3.141331  3.141593

  25  -289.81812693  -289.81812728    -0.00000035  0.04503471  0.05616139  0.00743876  0.02863253  0.07894191  0.00138495     89.05

 Constraints section
ConstraintsConstraintsConstraintsConstraintsConstraintsConstraintsConstraintsConstraintsConstraintsConstraints
ConstraintsConstraintsConstraintsConstraintsConstraintsConstraintsConstraintsConstraintsConstraintsConstraints
Constraints                                                                                        Constraints
Constraints                                 C O N S T R A I N T S                                  Constraints
Constraints                                                                                        Constraints

************************************************************************************************************************
BO0001 = BOND       H7    C1
BO0002 = BOND       H7    C17
AN0001 = ANGLE      C1    H7    C17
VALUES
BO0001 =      2.00000000 ANGSTROM
BO0002 =      2.00000000 ANGSTROM
AN0001 =    180.00000000 DEGREE
************************************************************************************************************************


 *************************************************************
 * Values of the primitive constraints                       *
 *************************************************************
 BO0001   : Bond Length=  2.000000 / Angstrom  3.779452 / bohr
 BO0002   : Bond Length=  2.000000 / Angstrom  3.779452 / bohr
  Valence angle close to end in range of definition
 AN0001   : Angle=      179.4811   / Degree    3.132536 / rad

 *******************************************
 * Values of the constraints   / au or rad *
 *******************************************
   Label        C         C0
 Cns001      3.779452  3.779452
 Cns002      3.779452  3.779452
 Cns003      3.132536  3.141593

 Geometry section
 Geometry section
  26  -289.81812728  -289.81813905    -0.00001177  0.00014573  0.00033293  0.00004805  0.01946880  0.04290125  0.00075265     91.99

 END OF GEOMETRY OPTIMIZATION.

 Current geometry (xyz format, in Angstrom)

   19
 CF-UKS-SCF000/SVP  ENERGY=-289.81813905
 C         -8.0911913649        2.5788591311       -0.4042023865
 C         -6.6017990671        2.4621274375       -0.5343264945
 H         -8.6224896006        1.7222816217       -0.8622875880
 H         -8.4765519013        3.5216096462       -0.8388964809
 H         -8.3623347719        2.5899246246        0.6802883505
 C         -5.7898266664        3.6803225051       -0.2121068156
 C         -5.9989362990        1.0999531260       -0.3115145187
 H         -6.4427204748        2.5180738264       -2.5272048157
 H         -6.2613778891        4.6063456266       -0.5933135352
 H         -4.7529784142        3.6210449927       -0.5929366501
 H         -5.7209469308        3.7826177251        0.8995133717
 H         -6.6651097965        0.3355292585       -0.7638561011
 H         -6.0661790796        0.9158490581        0.7933161351
 C         -4.5553633552        0.8890525831       -0.7717865047
 H         -4.4593603079        1.0850869558       -1.8593341969
 H         -4.2392568345       -0.1560033418       -0.5858242882
 H         -3.8408754833        1.5480294619       -0.2394325512
 C         -6.2835669852        2.5740443180       -4.5200764801
 N         -6.1812147779        2.5949914433       -5.6947984496

 **********************************************************************************************************************************

 Geometry written to block  1 of record 700


 **********************************************************************************************************************************
 DATASETS  * FILE   NREC   LENGTH (MB)   RECORD NAMES
              1      19       31.21       500      610      700      900      950      970     1000      129      960     1100   
                                          VAR    BASINP    GEOM    SYMINP    ZMAT    AOBASIS   BASIS     P2S    ABASIS      S 
                                         1400     1410     1200     1210     1080     1600     1650     1700     1800   
                                           T        V       H0       H01     AOSYM     SMH    MOLCAS    OPER     GRID   

              2       7        8.30       700     1000      520     2100     1800     2200      520(1)
                                         GEOM     BASIS   MCVARS     RHF     GRID      UKS    MCVARS    

 PROGRAMS   *        TOTAL      OPTG    DF-UKS     DF-HF       INT
 CPU TIMES  *        98.25     91.99      2.93      2.90      0.30
 REAL TIME  *       103.61 SEC
 DISK USED  *        42.97 MB (local),      171.87 MB (total)
 SF USED    *        32.17 MB
 GA USED    *         3.27 MB       (max)       2.06 MB       (current)
 **********************************************************************************************************************************

 Density functional group PBE0=PBEX+PBEC
 Functional: PBEX(Automatically generated (new) PBEX)                          Gradient terms: 1
 Functional: PBEC(Automatically generated (new) PBEC)                          Gradient terms: 1
 Use libxcgrid:  F
 Use grid at  1800.2


 Exact exchange will be calculated, factor:  0.2500

 Functional: PBEX                      Factor:  0.7500
 Functional: PBEC                      Factor:  1.0000

  129907 words reserved for DFT integration

 PROGRAM * UKS-SCF (Unrestricted Kohn-Sham)     Authors: W. Meyer, H.-J. Werner, P.J. Knowles, 1993

 NUMBER OF ELECTRONS:      28+   27-    SPACE SYMMETRY=1    SPIN SYMMETRY: Doublet 
 CONVERGENCE THRESHOLDS:    1.00E-06 (Density)    1.00E-06 (Energy)
 INTEGRAL THRESHOLDS:       1.00E-11 (Initial)    1.00E-11 (Final)
 MAX. NUMBER OF ITERATIONS:       60
 INTERPOLATION TYPE:            DIIS
 INTERPOLATION STEPS:              2 (START)      1 (STEP)
 LEVEL SHIFTS:                 -0.20 (ALPHA)  -0.20 (BETA) 



 Use fine grid record 1800.2 for energy threshold  1.0D-06

 Coulomb fitting
 Screening thresholds:    THRAO_COUL= 1.0D-14    THRAO= 1.0D-12    THROV= 1.0D-12

 Reserved 1 MW to cache 100.0% of significant integrals (4 MW global). CPU: 0.1 sec

 Molecular orbitals read from record     2200.2  Type=UKS/ALPHA (state 1.1)
 Molecular orbitals read from record     2200.2  Type=UKS/BETA (state 1.1)

 Molecular orbital dump at record        2201.2

 Initial alpha occupation  28
 Initial beta  occupation  27

 Direct Fock-matrix evaluation.        Author: H.-J. Werner (1996)

 Integral Threshold:                  0.1D-09

 ITERATION   DDIFF            GRAD            ENERGY        2-EL.EN.            DIPOLE MOMENTS         DIIS   CPU(IT)  CPU(TOT)
    1      0.000D+00      0.000D+00      -289.84101455    788.059139   -0.18579   -0.13643    3.20860    0      2.4      2.5
    2      0.144D-02      0.591D-03      -289.84471700    787.533757   -0.19626   -0.13686    3.31722    1      2.0      4.5
    3      0.600D-03      0.152D-03      -289.84542094    787.699087   -0.19890   -0.13918    3.36706    2      1.9      6.3
    4      0.316D-03      0.870D-04      -289.84574245    787.635942   -0.20475   -0.14057    3.44488    3      2.0      8.3
    5      0.180D-03      0.656D-04      -289.84588822    787.615719   -0.20322   -0.14141    3.43904    4      2.0     10.3
    6      0.104D-03      0.393D-04      -289.84595618    787.682782   -0.20403   -0.14180    3.44856    5      2.0     12.3
    7      0.525D-04      0.196D-04      -289.84598477    787.663376   -0.20398   -0.14141    3.44592    6      1.7     14.0
    8      0.363D-04      0.114D-04      -289.84599743    787.657755   -0.20342   -0.14108    3.43675    7      1.8     15.8
    9      0.285D-04      0.771D-05      -289.84600253    787.662094   -0.20309   -0.14054    3.42696    8      1.9     17.7
   10      0.147D-04      0.339D-05      -289.84600417    787.662568   -0.20269   -0.14033    3.42174    9      2.1     19.8
   11      0.768D-05      0.212D-05      -289.84600469    787.662947   -0.20264   -0.14019    3.41897    9      1.7     21.5
   12      0.535D-05      0.101D-05      -289.84600483    787.663400   -0.20256   -0.14017    3.41797    9      1.6     23.1
   13      0.263D-05      0.490D-06      -289.84600486    787.663471   -0.20258   -0.14016    3.41799    9      1.6     24.7
   14      0.160D-05      0.268D-06      -289.84600486    787.663335   -0.20258   -0.14017    3.41804    9      1.7     26.4
   15      0.765D-06      0.127D-06      -289.84600487    787.663410   -0.20258   -0.14016    3.41806    9      1.8     28.3
   16      0.304D-06      0.864D-07      -289.84600487    787.663418   -0.20259   -0.14016    3.41810    9      1.4     29.7

 Final alpha occupancy:  28
 Final beta  occupancy:  27

 !UKS STATE  1.1 Energy              -289.846004866523
 Nuclear energy                       267.36183806
 One-electron energy                 -918.25671978
 Two-electron energy                  393.83170897
 Density functional                   -32.78283212     PBEX=-41.36834380 PBEC= -1.75657426
 Virial quotient                       -1.01296452
 !UKS STATE  1.1 Dipole moment         -0.20258661    -0.14016386     3.41810321
 Dipole moment /Debye                  -0.51489008    -0.35623768     8.68738276

 Orbital energies for positive spin:

         1.1          2.1          3.1          4.1          5.1          6.1          7.1          8.1          9.1         10.1
    -14.355224   -10.331570   -10.274726   -10.270171   -10.270078   -10.252492   -10.250230    -0.878262    -0.869487    -0.785973

        11.1         12.1         13.1         14.1         15.1         16.1         17.1         18.1         19.1         20.1
     -0.745030    -0.675970    -0.581380    -0.515147    -0.506159    -0.484144    -0.459047    -0.435539    -0.427952    -0.419744

        21.1         22.1         23.1         24.1         25.1         26.1         27.1         28.1         29.1         30.1
     -0.412701    -0.396428    -0.381594    -0.378683    -0.332788    -0.311172    -0.311115    -0.259164    -0.063915     0.038804

 Orbital energies for negative spin:

         1.1          2.1          3.1          4.1          5.1          6.1          7.1          8.1          9.1         10.1
    -14.354995   -10.323308   -10.275082   -10.270598   -10.270467   -10.252338   -10.240970    -0.866952    -0.862512    -0.783774

        11.1         12.1         13.1         14.1         15.1         16.1         17.1         18.1         19.1         20.1
     -0.742950    -0.673228    -0.569456    -0.503624    -0.502153    -0.478583    -0.454354    -0.430151    -0.426621    -0.411544

        21.1         22.1         23.1         24.1         25.1         26.1         27.1         28.1         29.1         30.1
     -0.394166    -0.390907    -0.378725    -0.376322    -0.311654    -0.307384    -0.307336    -0.150146    -0.023097     0.040900


 HOMO     28.1    -0.259164 =      -7.0522eV
 LUMO    -28.1    -0.150146 =      -4.0857eV
 LUMO-HOMO         0.109018 =       2.9665eV

 EXPECTATION VALUE OF S**2:             0.77487645

 Occupation number threshold for pseudo-canonical orbitals: 1.9990 (occupied), 0.0010 (virtual)

 Number of pseudo-canonical occupied orbitals per symmetry:   26
 Number of active natural orbitals per symmetry:               3

 Natural orbitals saved to record    2201.2 (Orbital set 3)

 Orbital spaces for UNO-CAS (Min. occupation: 0.020  Max. occupation: 1.980):

 Closed:       27
 Active:        1


 **********************************************************************************************************************************
[...]

 Final alpha occupancy:  28
 Final beta  occupancy:  27

 !UKS STATE  1.1 Energy              -290.162449530778
 Nuclear energy                       269.06086837
 One-electron energy                 -922.08543033
 Two-electron energy                  395.74522146
 Density functional                   -32.88310903     PBEX=-41.51390218 PBEC= -1.74768239
 Virial quotient                       -1.00676250
 !UKS STATE  1.1 Dipole moment         -0.27604156    -0.17272078     3.58947164
 Dipole moment /Debye                  -0.70158172    -0.43898367     9.12292933

 Orbital energies for positive spin:

         1.1          2.1          3.1          4.1          5.1          6.1          7.1          8.1          9.1         10.1
    -14.345550   -10.325266   -10.263311   -10.257194   -10.256177   -10.237879   -10.236316    -0.892049    -0.887284    -0.798833

        11.1         12.1         13.1         14.1         15.1         16.1         17.1         18.1         19.1         20.1
     -0.757536    -0.686991    -0.590368    -0.521564    -0.511632    -0.489373    -0.464333    -0.441476    -0.431853    -0.427123

        21.1         22.1         23.1         24.1         25.1         26.1         27.1         28.1         29.1         30.1
     -0.416879    -0.399463    -0.384241    -0.382148    -0.338621    -0.316561    -0.316486    -0.262248    -0.069501     0.017865

 Orbital energies for negative spin:

         1.1          2.1          3.1          4.1          5.1          6.1          7.1          8.1          9.1         10.1
    -14.345079   -10.317584   -10.263553   -10.257499   -10.256428   -10.237747   -10.227553    -0.881083    -0.879877    -0.796738

        11.1         12.1         13.1         14.1         15.1         16.1         17.1         18.1         19.1         20.1
     -0.755559    -0.684347    -0.578371    -0.509460    -0.508608    -0.484168    -0.459754    -0.435963    -0.430561    -0.415720

        21.1         22.1         23.1         24.1         25.1         26.1         27.1         28.1         29.1         30.1
     -0.399586    -0.396524    -0.381458    -0.379930    -0.315633    -0.312951    -0.312745    -0.153285    -0.028551     0.020023


 HOMO     28.1    -0.262248 =      -7.1361eV
 LUMO    -28.1    -0.153285 =      -4.1711eV
 LUMO-HOMO         0.108963 =       2.9650eV

 EXPECTATION VALUE OF S**2:             0.77163084

 Occupation number threshold for pseudo-canonical orbitals: 1.9990 (occupied), 0.0010 (virtual)

 Number of pseudo-canonical occupied orbitals per symmetry:   26
 Number of active natural orbitals per symmetry:               3

 Natural orbitals saved to record    2204.2 (Orbital set 3)

 Orbital spaces for UNO-CAS (Min. occupation: 0.020  Max. occupation: 1.980):

 Closed:       27
 Active:        1


 **********************************************************************************************************************************
 DATASETS  * FILE   NREC   LENGTH (MB)   RECORD NAMES
              1      19       33.38       500      610      700      900      950      970     1001      129      960     1100   
                                          VAR    BASINP    GEOM    SYMINP    ZMAT    AOBASIS   BASIS     P2S    ABASIS      S 
                                         1400     1410     1200     1210     1080     1600     1650     1700     1800   
                                           T        V       H0       H01     AOSYM     SMH    MOLCAS    OPER     GRID   

              2      12       27.09       700     1000      520     2100     1800     2200      520(1)  2201     2202     1001   
                                         GEOM     BASIS   MCVARS     RHF     GRID      UKS    MCVARS     UKS      UKS     BASIS   
                                         2203     2204   
                                          UKS      UKS  

 PROGRAMS   *        TOTAL    DF-UKS    DF-UKS       INT    DF-UKS      OPTG    DF-UKS      OPTG    DF-UKS     DF-HF       INT
 CPU TIMES  *       807.22    129.36      4.52      0.22      2.60    542.52     29.71     91.99      2.93      2.90      0.30
 REAL TIME  *       821.45 SEC
 DISK USED  *        60.56 MB (local),      242.23 MB (total)
 SF USED    *        32.17 MB
 GA USED    *         3.27 MB       (max)       2.09 MB       (current)
 **********************************************************************************************************************************

 Density functional group PBE0=PBEX+PBEC
 Functional: PBEX(Automatically generated (new) PBEX)                          Gradient terms: 1
 Functional: PBEC(Automatically generated (new) PBEC)                          Gradient terms: 1
 Use libxcgrid:  F
 Use grid at  1800.2


 Exact exchange will be calculated, factor:  0.2500

 Functional: PBEX                      Factor:  0.7500
 Functional: PBEC                      Factor:  1.0000

  234265 words reserved for DFT integration

 PROGRAM * UKS-SCF (Unrestricted Kohn-Sham)     Authors: W. Meyer, H.-J. Werner, P.J. Knowles, 1993

 NUMBER OF ELECTRONS:      28+   27-    SPACE SYMMETRY=1    SPIN SYMMETRY: Doublet 
 CONVERGENCE THRESHOLDS:    1.00E-06 (Density)    1.00E-06 (Energy)
 INTEGRAL THRESHOLDS:       1.00E-11 (Initial)    1.00E-11 (Final)
 MAX. NUMBER OF ITERATIONS:       60
 INTERPOLATION TYPE:            DIIS
 INTERPOLATION STEPS:              2 (START)      1 (STEP)
 LEVEL SHIFTS:                 -0.20 (ALPHA)  -0.20 (BETA) 



 Use fine grid record 1800.2 for energy threshold  1.0D-06
 Molecular orbitals read from record     2204.2  Type=UKS/ALPHA (state 1.1)
 Molecular orbitals read from record     2204.2  Type=UKS/BETA (state 1.1)

 Molecular orbital dump at record        2205.2

 Initial alpha occupation  28
 Initial beta  occupation  27

 Direct Fock-matrix evaluation.        Author: H.-J. Werner (1996)

 Integral Threshold:                  0.1D-10

 ITERATION   DDIFF            GRAD            ENERGY        2-EL.EN.            DIPOLE MOMENTS         DIIS   CPU(IT)  CPU(TOT)
    1      0.000D+00      0.000D+00      -290.16216615    791.491010   -0.27604   -0.17272    3.58947    0     11.3     11.3
    2      0.406D-04      0.835D-05      -290.16216788    791.487448   -0.27610   -0.17269    3.58956    1      9.7     21.0
    3      0.129D-04      0.151D-05      -290.16216798    791.488354   -0.27615   -0.17269    3.58954    2      9.4     30.4
    4      0.429D-05      0.293D-06      -290.16216798    791.488108   -0.27618   -0.17269    3.58962    3      9.2     39.6
    5      0.939D-06      0.129D-06      -290.16216798    791.488365   -0.27619   -0.17270    3.58958    4      8.5     48.1
    6      0.303D-06      0.919D-07      -290.16216799    791.488448   -0.27620   -0.17270    3.58964    5      8.0     56.1

 Final alpha occupancy:  28
 Final beta  occupancy:  27

 !UKS STATE  1.1 Energy              -290.162167985250
 Nuclear energy                       269.06086837
 One-electron energy                 -922.08443454
 Two-electron energy                  395.74422397
 Density functional                   -32.88282579     PBEX=-41.51346557 PBEC= -1.74772661
 Virial quotient                       -1.00677330
 !UKS STATE  1.1 Dipole moment         -0.27619891    -0.17269603     3.58963822
 Dipole moment /Debye                  -0.70198163    -0.43892076     9.12335272

 Orbital energies for positive spin:

         1.1          2.1          3.1          4.1          5.1          6.1          7.1          8.1          9.1         10.1
    -14.345586   -10.325286   -10.263337   -10.257252   -10.256231   -10.237931   -10.236337    -0.892053    -0.887278    -0.798842

        11.1         12.1         13.1         14.1         15.1         16.1         17.1         18.1         19.1         20.1
     -0.757548    -0.686994    -0.590373    -0.521573    -0.511639    -0.489387    -0.464335    -0.441474    -0.431867    -0.427121

        21.1         22.1         23.1         24.1         25.1         26.1         27.1         28.1         29.1         30.1
     -0.416885    -0.399473    -0.384238    -0.382150    -0.338599    -0.316570    -0.316495    -0.262226    -0.069539     0.017815

 Orbital energies for negative spin:

         1.1          2.1          3.1          4.1          5.1          6.1          7.1          8.1          9.1         10.1
    -14.345114   -10.317602   -10.263578   -10.257556   -10.256481   -10.237799   -10.227574    -0.881087    -0.879867    -0.796747

        11.1         12.1         13.1         14.1         15.1         16.1         17.1         18.1         19.1         20.1
     -0.755570    -0.684350    -0.578376    -0.509467    -0.508618    -0.484183    -0.459759    -0.435963    -0.430575    -0.415726

        21.1         22.1         23.1         24.1         25.1         26.1         27.1         28.1         29.1         30.1
     -0.399576    -0.396531    -0.381456    -0.379930    -0.315610    -0.312959    -0.312752    -0.153261    -0.028575     0.019971


 HOMO     28.1    -0.262226 =      -7.1355eV
 LUMO    -28.1    -0.153261 =      -4.1704eV
 LUMO-HOMO         0.108965 =       2.9651eV

 EXPECTATION VALUE OF S**2:             0.77164129

 Occupation number threshold for pseudo-canonical orbitals: 1.9990 (occupied), 0.0010 (virtual)

 Number of pseudo-canonical occupied orbitals per symmetry:   26
 Number of active natural orbitals per symmetry:               3

 Natural orbitals saved to record    2205.2 (Orbital set 3)

 Orbital spaces for UNO-CAS (Min. occupation: 0.020  Max. occupation: 1.980):

 Closed:       27
 Active:        1


 **********************************************************************************************************************************
 DATASETS  * FILE   NREC   LENGTH (MB)   RECORD NAMES
              1      19       33.38       500      610      700      900      950      970     1001      129      960     1100   
                                          VAR    BASINP    GEOM    SYMINP    ZMAT    AOBASIS   BASIS     P2S    ABASIS      S 
                                         1400     1410     1200     1210     1080     1600     1650     1700     1800   
                                           T        V       H0       H01     AOSYM     SMH    MOLCAS    OPER     GRID   

              2      13       32.94       700     1000      520     2100     1800     2200      520(1)  2201     2202     1001   
                                         GEOM     BASIS   MCVARS     RHF     GRID      UKS    MCVARS     UKS      UKS     BASIS   
                                         2203     2204     2205   
                                          UKS      UKS      UKS  

 PROGRAMS   *        TOTAL   UKS-SCF    DF-UKS    DF-UKS       INT    DF-UKS      OPTG    DF-UKS      OPTG    DF-UKS     DF-HF
 CPU TIMES  *       863.40     56.18    129.36      4.52      0.22      2.60    542.52     29.71     91.99      2.93      2.90
 REAL TIME  *       877.68 SEC
 DISK USED  *        66.41 MB (local),      265.66 MB (total)
 SF USED    *        32.17 MB
 GA USED    *         3.27 MB       (max)       2.09 MB       (current)
 **********************************************************************************************************************************

 Density functional group B3LYP=B88+DIRAC+LYP+VWN5
 Functional: B88(Automatically generated (new) B88)                            Gradient terms: 1
 Functional: DIRAC(Automatically generated (new) DIRAC)                        Gradient terms: 0
 Functional: LYP(Automatically generated (new) LYP)                            Gradient terms: 1
 Functional: VWN5(Automatically generated (new) VWN5)                          Gradient terms: 0
 Use libxcgrid:  F
 Use grid at  1800.2


 Exact exchange will be calculated, factor:  0.2000

 Functional: B88                       Factor:  0.7200
 Functional: DIRAC                     Factor:  0.0800
 Functional: LYP                       Factor:  0.8100
 Functional: VWN5                      Factor:  0.1900

  234265 words reserved for DFT integration

 PROGRAM * UKS-SCF (Unrestricted Kohn-Sham)     Authors: W. Meyer, H.-J. Werner, P.J. Knowles, 1993

 NUMBER OF ELECTRONS:      28+   27-    SPACE SYMMETRY=1    SPIN SYMMETRY: Doublet 
 CONVERGENCE THRESHOLDS:    1.00E-06 (Density)    1.00E-06 (Energy)
 INTEGRAL THRESHOLDS:       1.00E-11 (Initial)    1.00E-11 (Final)
 MAX. NUMBER OF ITERATIONS:       60
 INTERPOLATION TYPE:            DIIS
 INTERPOLATION STEPS:              2 (START)      1 (STEP)
 LEVEL SHIFTS:                 -0.20 (ALPHA)  -0.20 (BETA) 



 Use fine grid record 1800.2 for energy threshold  1.0D-06
 Molecular orbitals read from record     2205.2  Type=UKS/ALPHA (state 1.1)
 Molecular orbitals read from record     2205.2  Type=UKS/BETA (state 1.1)

 Molecular orbital dump at record        2206.2

 Initial alpha occupation  28
 Initial beta  occupation  27

 Direct Fock-matrix evaluation.        Author: H.-J. Werner (1996)

 Integral Threshold:                  0.1D-10

 ITERATION   DDIFF            GRAD            ENERGY        2-EL.EN.            DIPOLE MOMENTS         DIIS   CPU(IT)  CPU(TOT)
    1      0.000D+00      0.000D+00      -290.33792776    795.651505   -0.27620   -0.17270    3.58964    0     11.1     11.2
    2      0.101D-02      0.391D-03      -290.34208542    796.027786   -0.27751   -0.17298    3.60500    1      9.9     21.0
    3      0.194D-03      0.640D-04      -290.34231041    795.695795   -0.27650   -0.17299    3.58745    2      9.7     30.7
    4      0.984D-04      0.283D-04      -290.34234943    795.738316   -0.27706   -0.17275    3.59810    3      9.4     40.1
    5      0.403D-04      0.160D-04      -290.34236414    795.743221   -0.27689   -0.17253    3.59335    4      9.8     49.9
    6      0.314D-04      0.960D-05      -290.34237341    795.718396   -0.27752   -0.17266    3.60178    5      9.6     59.4
    7      0.162D-04      0.412D-05      -290.34237792    795.726833   -0.27791   -0.17290    3.60529    6      9.2     68.7
    8      0.114D-04      0.255D-05      -290.34238010    795.719925   -0.27846   -0.17310    3.61173    7      9.1     77.8
    9      0.725D-05      0.137D-05      -290.34238065    795.719843   -0.27870   -0.17331    3.61542    8      9.3     87.0
   10      0.232D-05      0.496D-06      -290.34238071    795.719965   -0.27886   -0.17339    3.61657    9      9.2     96.2
   11      0.125D-05      0.297D-06      -290.34238075    795.719781   -0.27888   -0.17344    3.61732    9      8.6    104.8
   12      0.134D-05      0.203D-06      -290.34238077    795.719677   -0.27893   -0.17346    3.61795    9      8.6    113.4
   13      0.667D-06      0.964D-07      -290.34238077    795.719482   -0.27895   -0.17348    3.61817    9      8.6    122.0
   14      0.249D-06      0.426D-07      -290.34238077    795.719557   -0.27895   -0.17348    3.61825    9      8.6    130.6

 Final alpha occupancy:  28
 Final beta  occupancy:  27

 !UKS STATE  1.1 Energy              -290.342380773633
 Nuclear energy                       269.06086837
 One-electron energy                 -922.09654516
 Two-electron energy                  397.85977831
 Density functional                   -35.16648230     B88=-41.78533338 DIRAC=-37.54817594 LYP= -1.75883125 VWN5= -3.43439408
 Virial quotient                       -1.00629418
 !UKS STATE  1.1 Dipole moment         -0.27895481    -0.17348055     3.61824608
 Dipole moment /Debye                  -0.70898596    -0.44091470     9.19606187

 Orbital energies for positive spin:

         1.1          2.1          3.1          4.1          5.1          6.1          7.1          8.1          9.1         10.1
    -14.276720   -10.269479   -10.210706   -10.205926   -10.204899   -10.185888   -10.180494    -0.866376    -0.860294    -0.775841

        11.1         12.1         13.1         14.1         15.1         16.1         17.1         18.1         19.1         20.1
     -0.736343    -0.667225    -0.573205    -0.506132    -0.497196    -0.475385    -0.451485    -0.429976    -0.420178    -0.409905

        21.1         22.1         23.1         24.1         25.1         26.1         27.1         28.1         29.1         30.1
     -0.405995    -0.388391    -0.374151    -0.372133    -0.325849    -0.302299    -0.302231    -0.251430    -0.076260     0.008399

 Orbital energies for negative spin:

         1.1          2.1          3.1          4.1          5.1          6.1          7.1          8.1          9.1         10.1
    -14.276055   -10.262625   -10.210872   -10.206153   -10.205076   -10.185765   -10.172398    -0.856922    -0.853088    -0.773938

        11.1         12.1         13.1         14.1         15.1         16.1         17.1         18.1         19.1         20.1
     -0.734390    -0.664814    -0.562871    -0.495793    -0.494700    -0.470816    -0.447505    -0.424960    -0.418976    -0.404849

        21.1         22.1         23.1         24.1         25.1         26.1         27.1         28.1         29.1         30.1
     -0.386581    -0.382800    -0.371598    -0.370046    -0.304237    -0.298565    -0.298448    -0.160548    -0.037911     0.009578


 HOMO     28.1    -0.251430 =      -6.8418eV
 LUMO    -28.1    -0.160548 =      -4.3687eV
 LUMO-HOMO         0.090882 =       2.4730eV

 EXPECTATION VALUE OF S**2:             0.76487959

 Occupation number threshold for pseudo-canonical orbitals: 1.9990 (occupied), 0.0010 (virtual)

 Number of pseudo-canonical occupied orbitals per symmetry:   26
 Number of active natural orbitals per symmetry:               3

 Natural orbitals saved to record    2206.2 (Orbital set 3)

 Orbital spaces for UNO-CAS (Min. occupation: 0.020  Max. occupation: 1.980):

 Closed:       27
 Active:        1


 **********************************************************************************************************************************
 DATASETS  * FILE   NREC   LENGTH (MB)   RECORD NAMES
              1      19       33.38       500      610      700      900      950      970     1001      129      960     1100   
                                          VAR    BASINP    GEOM    SYMINP    ZMAT    AOBASIS   BASIS     P2S    ABASIS      S 
                                         1400     1410     1200     1210     1080     1600     1650     1700     1800   
                                           T        V       H0       H01     AOSYM     SMH    MOLCAS    OPER     GRID   

              2      14       38.80       700     1000      520     2100     1800     2200      520(1)  2201     2202     1001   
                                         GEOM     BASIS   MCVARS     RHF     GRID      UKS    MCVARS     UKS      UKS     BASIS   
                                         2203     2204     2205     2206   
                                          UKS      UKS      UKS      UKS  

 PROGRAMS   *        TOTAL   UKS-SCF   UKS-SCF    DF-UKS    DF-UKS       INT    DF-UKS      OPTG    DF-UKS      OPTG    DF-UKS
 CPU TIMES  *       994.04    130.64     56.18    129.36      4.52      0.22      2.60    542.52     29.71     91.99      2.93
 REAL TIME  *      1008.44 SEC
 DISK USED  *        72.27 MB (local),      289.08 MB (total)
 SF USED    *        32.17 MB
 GA USED    *         3.27 MB       (max)       2.09 MB       (current)
 **********************************************************************************************************************************

 UB3LYP/TZVP//CF-UKS/SVP energy=   -290.342380773633

         UKS-SCF         UKS-SCF          DF-UKS          DF-UKS          DF-UKS    OPTG(DF-UKS)          DF-UKS    OPTG(DF-UKS)
   -290.34238077   -290.16216799   -290.16244953   -290.13948295   -289.81686380   -289.84694725   -289.84600487   -289.81813905
 **********************************************************************************************************************************
 Molpro calculation terminated with 1 warning(s)
